/*--------------------------------*- C++ -*----------------------------------*\
| =========                 |                                                 |
| \\      /  F ield         | OpenFOAM: The Open Source CFD Toolbox           |
|  \\    /   O peration     | Version:  1.7.x                                 |
|   \\  /    A nd           | Web:      www.OpenFOAM.com                      |
|    \\/     M anipulation  |                                                 |
\*---------------------------------------------------------------------------*/
FoamFile
{
    version     2.0;
    format      ascii;
    class       volScalarField;
    location    "2";
    object      p;
}
// * * * * * * * * * * * * * * * * * * * * * * * * * * * * * * * * * * * * * //

dimensions      [0 2 -2 0 0 0 0];

internalField   nonuniform List<scalar> 
400
(
3.01033e-06
-0.00582486
-0.0129629
-0.0184154
-0.0204331
-0.0182396
-0.011775
-0.00148473
0.0118364
0.0271483
0.0432437
0.0588224
0.0725781
0.083308
0.0900524
0.0922666
0.0900255
0.0842434
0.0768801
0.0710665
0.0057812
-0.000218115
-0.00580414
-0.00954299
-0.0105996
-0.00843358
-0.00297091
0.00547315
0.016302
0.0287109
0.041749
0.0543853
0.0655858
0.0744094
0.0801198
0.0823153
0.0810768
0.0770543
0.0712735
0.0653172
0.0133353
0.00503366
-0.000995516
-0.0044235
-0.0052735
-0.0032647
0.00160141
0.00902657
0.0185011
0.0293484
0.0407647
0.051869
0.0617679
0.0696358
0.0748064
0.0768775
0.075841
0.0720853
0.0658048
0.0575347
0.0201396
0.00869588
0.00122561
-0.00266891
-0.00372264
-0.001886
0.00273041
0.00978357
0.0187793
0.029094
0.0399911
0.0506533
0.0602323
0.0679153
0.0730025
0.0750008
0.0737651
0.0694554
0.0616022
0.0501016
0.0245022
0.00977302
0.000589502
-0.0039873
-0.00530271
-0.00350793
0.00117398
0.00833364
0.0174609
0.027948
0.039084
0.0500691
0.0600481
0.0681644
0.0736257
0.075797
0.0743682
0.0692889
0.0595246
0.0445361
0.025178
0.00714994
-0.0038023
-0.00905761
-0.0105126
-0.00850051
-0.00335745
0.00442864
0.0143124
0.025678
0.0378128
0.0499023
0.0610472
0.0703024
0.0767339
0.0795161
0.0781381
0.0723326
0.0605383
0.041889
0.0210935
-0.000262471
-0.0129348
-0.0187097
-0.0200303
-0.0174144
-0.0113189
-0.00232034
0.00898965
0.0219753
0.0359086
0.0499434
0.0631112
0.0743444
0.0825211
0.0865687
0.0857199
0.0794462
0.0656194
0.0430706
0.0111427
-0.0136184
-0.0278753
-0.0338546
-0.034604
-0.030858
-0.0232134
-0.0123458
0.0011042
0.0164831
0.0330517
0.0499327
0.0660824
0.080289
0.0911999
0.0974292
0.0978695
0.0916352
0.0758954
0.0491155
-0.00596744
-0.0342667
-0.0498703
-0.055549
-0.0550906
-0.0495151
-0.0395941
-0.0261139
-0.00975768
0.00882236
0.0289003
0.0495927
0.0697966
0.0881537
0.103047
0.1127
0.11555
0.110191
0.0928335
0.0614106
-0.0318576
-0.0638765
-0.0804173
-0.0850075
-0.0824205
-0.0740788
-0.0609815
-0.0440372
-0.0239521
-0.00133747
0.023145
0.0486603
0.0740949
0.0979715
0.118395
0.133125
0.139988
0.136817
0.11844
0.0819331
-0.0686679
-0.104604
-0.121345
-0.12359
-0.117516
-0.105127
-0.0877188
-0.0663261
-0.0416376
-0.0141562
0.015605
0.0469527
0.0788552
0.109793
0.137623
0.159585
0.172726
0.173778
0.15552
0.11357
-0.119403
-0.159357
-0.174915
-0.172757
-0.161148
-0.142929
-0.119759
-0.0927775
-0.0625779
-0.0294481
0.00637265
0.0444731
0.0840547
0.123703
0.161136
0.193086
0.215668
0.224077
0.20805
0.160632
-0.188629
-0.232242
-0.243939
-0.233948
-0.213694
-0.187154
-0.156373
-0.122501
-0.0858982
-0.0464725
-0.00401476
0.0415386
0.0898419
0.139829
0.189319
0.234689
0.271074
0.291664
0.281743
0.229776
-0.283975
-0.329305
-0.331832
-0.30828
-0.274708
-0.23644
-0.195764
-0.15361
-0.10984
-0.0637451
-0.0144378
0.0388635
0.0965544
0.158277
0.222374
0.285288
0.341397
0.381575
0.384914
0.331834
-0.419318
-0.459671
-0.44235
-0.395792
-0.342128
-0.287739
-0.234615
-0.182929
-0.131609
-0.0789843
-0.0232134
0.0374759
0.104554
0.178838
0.259862
0.344971
0.428617
0.499701
0.529676
0.485392
-0.620531
-0.636743
-0.578676
-0.494192
-0.411239
-0.335657
-0.267779
-0.205976
-0.147535
-0.0893817
-0.0284249
0.0383495
0.113808
0.200473
0.299976
0.412026
0.533031
0.651776
0.732773
0.722397
-0.935923
-0.878513
-0.74174
-0.597947
-0.474391
-0.372657
-0.288867
-0.217761
-0.153952
-0.0924623
-0.0287157
0.0416973
0.123265
0.22072
0.338927
0.482156
0.651998
0.841343
1.01527
1.0975
-1.47642
-1.20663
-0.920501
-0.691386
-0.517303
-0.387542
-0.290059
-0.213335
-0.148122
-0.0872137
-0.0245759
0.0454592
0.128939
0.233073
0.367105
0.54268
0.771295
1.05932
1.40329
1.73014
-2.53965
-1.63055
-1.04444
-0.710957
-0.495748
-0.352091
-0.254529
-0.183581
-0.126167
-0.0735933
-0.0192673
0.0427886
0.119214
0.218784
0.354814
0.547985
0.826395
1.23658
1.91168
2.92419
-4.36666
-2.04463
-0.97354
-0.563179
-0.357844
-0.240144
-0.170117
-0.123781
-0.0874793
-0.0535085
-0.0166528
0.0276623
0.0846091
0.161731
0.272413
0.442101
0.718221
1.22571
2.41104
4.84853
)
;

boundaryField
{
    movingWall
    {
        type            zeroGradient;
    }
    fixedWalls
    {
        type            zeroGradient;
    }
    frontAndBack
    {
        type            empty;
    }
}


// ************************************************************************* //
