# vtk DataFile Version 2.0
vtk output
ASCII
DATASET POLYDATA
POINTS 6792 float
9.43051 -4.04626 27.3452 9.3653 -4.0407 27.3187 9.41285 -4.11906 27.3556 
9.43245 -4.05236 27.3846 11.2281 -4.6267 29.2331 11.2495 -4.53775 29.2856 
11.1817 -4.62159 29.2056 11.484 -4.6464 29.3491 11.5491 -4.37501 29.575 
11.8323 -4.39359 29.6991 11.5599 -4.37484 29.5841 11.8151 -4.47287 29.5242 
11.6893 -4.65364 29.3819 12.183 -4.72654 29.8355 11.7688 -4.70044 29.7109 
11.8183 -4.40466 29.7968 12.192 -4.71935 29.8296 12.1935 -4.7242 29.8275 
9.47234 -3.77081 27.3233 9.24768 -3.75304 27.2398 9.47145 -3.78984 27.4588 
11.8179 -4.39025 29.7987 3.5781 -3.20584 23.4773 3.3624 -3.05601 24.0363 
3.43334 -3.17658 24.0085 3.3583 -3.04222 23.5529 3.60564 -3.03602 23.5109 
3.47449 -3.0552 24.0263 9.22108 -3.4809 27.2425 9.21133 -3.48026 27.2394 
9.21748 -3.54395 27.2374 9.48974 -3.50063 27.3375 9.48299 -3.52226 27.5055 
2.97107 -2.87457 23.7702 2.964 -2.82429 23.7808 2.94764 -2.82888 23.8523 
3.16569 -2.82856 24.0135 3.27481 -2.98768 23.5776 3.20509 -2.82893 24.0889 
3.62476 -2.80518 23.5471 3.51541 -2.82374 24.0567 9.21967 -3.42208 27.2555 
9.47797 -3.23551 27.4031 9.26082 -3.2202 27.3227 9.46874 -3.25013 27.5266 
2.94756 -2.5913 23.8175 2.88598 -2.60599 24.0766 3.07599 -2.6003 24.1408 
3.14338 -2.70647 24.1122 3.62962 -2.57323 23.5754 3.52137 -2.58964 24.0839 
9.43791 -2.97421 27.5225 9.42427 -2.97328 27.517 9.43726 -2.975 27.5297 
2.94527 -2.35706 23.8432 2.8543 -2.37506 24.2014 2.94942 -2.37098 24.1954 
3.62695 -2.34065 23.5986 3.50688 -2.35419 24.1081 9.43549 -2.96496 27.5292 
2.9524 -2.12208 23.8609 2.85944 -2.13756 24.2087 3.14528 -2.25458 24.1592 
3.16782 -2.12405 24.0921 3.25096 -2.12248 24.1562 3.6216 -2.1076 23.6185 
3.4797 -2.11808 24.1297 2.96803 -1.88661 23.871 2.9369 -1.89128 23.9903 
3.24347 -1.88328 23.8448 3.44317 -1.9364 24.144 3.46138 -1.88084 24.0884 
3.61475 -1.8742 23.6355 2.9776 -1.78559 23.8726 3.28858 -1.75199 23.6952 
3.43878 -1.64321 23.6761 3.54692 -1.64273 23.8229 3.60657 -1.64052 23.6497 
3.60024 -1.42601 23.661 3.60044 -0.518215 23.6983 3.57721 -0.469226 23.7037 
3.59265 -0.469205 23.7254 3.60148 -0.469114 23.6999 7.71297 -0.509583 26.0172 
7.5998 -0.507479 25.9624 7.69588 -0.621552 26.0479 7.71857 -0.510038 26.0697 
3.41693 -0.234996 23.7359 3.54306 -0.234891 23.8936 3.60736 -0.234554 23.7057 
7.72221 -0.255254 26.0052 7.554 -0.253298 25.9241 7.73115 -0.255221 26.084 
9.453 -0.270733 27.6631 9.3731 -0.270185 27.6254 9.4411 -0.338253 27.6926 
9.44921 -0.271096 27.7006 3.2893 -0.0838378 23.7595 3.16038 2.59438e-006 23.8342 
3.27221 2.88843e-006 23.8205 3.48475 7.56552e-007 24.0887 3.61303 2.7842e-006 23.7091 
7.71604 -0.000597027 26.0227 7.60541 0 25.9726 7.72364 0 26.0791 
9.23292 2.4405e-007 27.4611 9.19621 0 27.4479 9.22607 -0.0632607 27.4788 
9.49159 1.12369e-006 27.5737 9.46798 0 27.7181 2.97814 0.0885912 23.9389 
2.97192 0.236088 23.9419 2.95598 0.236398 24.0065 3.22466 0.235847 23.9881 
3.39147 0.235636 24.2306 3.44404 0.150849 24.2236 3.4612 0.23554 24.2236 
3.61826 0.234536 23.71 7.70527 0.254411 26.0469 7.67266 0.254412 26.0331 
7.7082 0.254811 26.065 9.25748 0.267995 27.4034 9.11585 0.267285 27.3625 
9.53155 0.269461 27.4879 9.49294 0.271798 27.7389 2.96196 0.472202 23.9446 
2.92278 0.473754 24.1055 3.17877 0.47245 24.1476 3.25052 0.472256 24.2471 
3.62304 0.469025 23.7083 3.49817 0.471454 24.2211 7.70048 0.378347 26.0568 
9.27619 0.535386 27.3603 9.06964 0.533457 27.3102 9.56198 0.537915 27.4168 
9.51844 0.544194 27.7575 11.6948 0.572329 29.7476 11.5612 0.583886 29.9021 
11.6389 0.556916 29.9693 11.679 0.57989 29.7332 11.9423 0.478949 29.9717 
11.8839 0.487413 30.1705 11.9513 0.586523 29.9782 11.9083 0.59005 30.1862 
2.95313 0.708312 23.9441 2.89447 0.711829 24.187 3.12437 0.709768 24.2613 
3.14663 0.664056 24.2571 3.62742 0.703449 23.7042 3.5248 0.707552 24.216 
9.28455 0.802635 27.3368 9.05163 0.799466 27.2848 9.56852 0.688351 27.3976 
9.55832 0.806094 27.3824 9.56904 0.806495 27.3953 9.52975 0.816556 27.7609 
11.2242 0.854414 29.3142 10.9539 0.857279 29.3167 11.1616 0.785405 29.5413 
11.4557 0.734777 29.5284 11.2313 0.854288 29.3127 11.397 0.673149 29.7587 
11.9648 0.879726 29.9832 11.9441 0.886525 30.2041 2.94706 0.944367 23.9397 
2.87462 0.950172 24.2401 3.02082 0.94829 24.2774 3.63142 0.937785 23.6977 
3.54477 0.943726 24.2083 9.28037 1.07042 27.3418 9.06842 1.06653 27.2932 
9.56849 0.959089 27.3894 9.56481 1.07544 27.3947 9.52727 1.0883 27.7495 
11.0029 1.12949 29.1011 10.7394 1.13238 29.0529 10.9349 0.87728 29.2959 
11.0778 1.12773 29.1076 11.2263 0.861026 29.3079 11.9715 1.1724 29.9792 
11.9603 1.18278 30.2054 2.94741 1.18027 23.929 2.87461 1.18754 24.2294 
2.99701 1.18578 24.2724 3.63496 1.17201 23.6886 3.55772 1.17984 24.198 
9.26283 1.33949 27.3789 9.12714 1.33618 27.3427 9.53619 1.34665 27.4558 
9.51264 1.35896 27.7249 11.0162 1.40538 29.0871 10.7375 1.41468 29.039 
11.0745 1.40286 29.0929 11.9735 1.46442 29.9681 11.9656 1.47861 30.1961 
2.97128 1.41566 23.9016 2.95249 1.41783 23.976 3.14641 1.40023 24.2252 
3.15026 1.41806 24.2105 3.15528 1.41807 24.223 3.63569 1.40613 23.6761 
3.55311 1.41541 24.185 9.23467 1.58442 27.4418 9.49059 1.62056 27.557 
9.25203 1.61139 27.4578 9.48322 1.62773 27.6847 10.982 1.69905 29.1969 
10.8634 1.706 29.1749 11.1868 1.6851 29.2209 11.9707 1.75559 29.95 
11.9602 1.77355 30.1765 2.97791 1.43205 23.8965 3.28889 1.49641 23.7126 
3.54545 1.64149 23.6569 3.46028 1.64621 24.1115 3.44373 1.63599 24.1672 
3.60901 1.64048 23.6506 9.45058 1.79386 27.6454 10.9539 1.8315 29.276 
11.1927 2.00244 29.4438 11.1106 2.01009 29.4305 11.2464 1.7741 29.2915 
11.4142 1.98251 29.4321 11.9624 2.04564 29.9241 11.9417 2.06686 30.1449 
3.60002 1.66185 23.6455 11.1754 2.05198 29.4965 11.468 2.02538 29.4792 
11.4061 2.1867 29.6952 11.701 2.20295 29.6766 11.6435 2.33378 29.8883 
11.8752 2.32419 29.825 11.6565 2.33955 29.8985 11.9458 2.3341 29.888 
11.9003 2.35675 30.0944 11.8859 2.40707 30.08 11.9433 2.36086 29.8835 
11.5563 4.3661 29.5251 11.4662 4.36309 29.504 11.5566 4.32139 29.5892 
11.8375 4.21159 29.8403 11.8533 4.37967 29.5733 11.8342 4.40805 29.8086 
11.2281 4.6267 29.2331 11.1817 4.62159 29.2056 11.2423 4.56561 29.2748 
11.484 4.6464 29.3491 11.8531 4.38014 29.5729 11.6893 4.65364 29.3819 
12.192 4.71933 29.8296 11.7688 4.70044 29.7109 12.183 4.72654 29.8355 
12.1935 4.7242 29.8275 3.86246 -3.56423 24.3885 3.75777 -3.5737 24.382 
3.86079 -3.5834 24.3868 4.1332 -3.69442 24.4082 4.14468 -3.57589 24.4177 
4.40236 -3.83193 24.4431 4.4268 -3.59332 24.4614 4.40685 -3.83419 24.4439 
4.68369 -3.85349 24.5028 4.70983 -3.61115 24.5178 4.96044 -3.87795 24.5864 
4.98356 -3.63478 24.6074 5.2326 -3.84099 24.6781 5.19322 -3.85522 24.6643 
5.25343 -3.61009 24.6992 5.50254 -3.82199 24.7821 5.52176 -3.62507 24.794 
5.7685 -3.82551 24.9012 5.78806 -3.64854 24.9004 6.02982 -3.86403 25.0301 
6.05382 -3.67124 25.0163 6.25396 -3.94259 25.1478 6.28704 -3.94555 25.1637 
6.31879 -3.69328 25.1415 6.55327 -3.96708 25.2899 6.58263 -3.71426 25.2756 
6.81748 -3.98986 25.4197 6.84533 -3.73675 25.4182 7.07715 -4.02012 25.5568 
7.10703 -3.76601 25.5694 7.33465 -4.0499 25.7002 7.36844 -3.79451 25.725 
7.59329 -4.08003 25.8521 7.62916 -3.8231 25.8841 7.79746 -4.15019 26.1146 
7.82553 -3.89018 26.1515 7.99523 -4.13809 26.3097 8.02334 -3.87927 26.3514 
8.21223 -4.16337 26.4809 8.24417 -3.90266 26.5244 8.43491 -4.19804 26.6613 
8.46881 -3.93454 26.7015 8.66077 -4.2317 26.8431 8.69802 -3.96514 26.8779 
8.8911 -4.26391 27.0203 8.93357 -3.99388 27.0466 9.12761 -4.2946 27.1887 
9.17742 -4.02052 27.2029 9.37234 -4.32528 27.3565 9.57544 -4.12297 27.7354 
9.54362 -4.39952 27.701 9.73146 -4.39247 27.917 9.76174 -4.11777 27.9644 
9.93477 -4.42287 28.109 9.96692 -4.14671 28.1663 10.1411 -4.4603 28.3103 
10.1724 -4.18301 28.3822 10.3486 -4.4969 28.5137 10.3808 -4.21899 28.6056 
10.5585 -4.53245 28.7136 10.5945 -4.25427 28.8293 10.7723 -4.56663 28.905 
10.8152 -4.2887 29.0477 10.993 -4.59902 29.0816 11.0446 -4.32234 29.2538 
11.2858 -4.35317 29.4401 11.549 -4.37402 29.578 11.7972 -4.416 29.869 
11.7565 -4.46789 29.9914 11.6794 -4.42746 29.9372 11.8287 -4.75908 29.9998 
3.87154 -3.32773 24.4203 3.59814 -3.35093 24.4044 4.15546 -3.33833 24.4475 
4.43894 -3.35434 24.4894 4.72276 -3.37065 24.5434 4.99436 -3.39307 24.6362 
5.26298 -3.37017 24.7294 5.53146 -3.38398 24.8229 5.79777 -3.40562 24.9267 
6.063 -3.4266 25.0402 6.32666 -3.44725 25.166 6.5894 -3.46708 25.3026 
6.85223 -3.48831 25.4487 7.11576 -3.51581 25.6041 7.37997 -3.54239 25.7628 
7.64266 -3.56886 25.9215 7.83716 -3.63174 26.1897 8.03629 -3.62159 26.3914 
8.26035 -3.64311 26.5649 8.48815 -3.67229 26.7392 8.72069 -3.69999 26.91 
8.95966 -3.72574 27.0713 9.20753 -3.74906 27.2161 9.58862 -3.8484 27.7704 
9.77041 -3.84528 28.0154 9.96509 -3.87663 28.2587 10.0862 -3.9047 28.4547 
10.1553 -3.98268 28.5185 10.3627 -4.09141 28.7339 10.5773 -4.14615 28.9644 
10.7989 -4.19183 29.195 11.0282 -4.24227 29.4154 11.2654 -4.30221 29.62 
11.5108 -4.37201 29.8137 3.39622 -3.06477 24.146 3.87394 -3.09187 24.458 
3.85471 -3.0934 24.4571 4.15931 -3.1014 24.4824 4.44392 -3.116 24.5222 
4.72794 -3.13102 24.575 4.99812 -3.15203 24.6695 5.26579 -3.13087 24.7639 
5.53369 -3.14375 24.8581 5.79904 -3.16397 24.9631 6.06316 -3.18357 25.0778 
6.32599 -3.20281 25.204 6.58789 -3.22139 25.3422 6.85055 -3.24127 25.4902 
7.11431 -3.26702 25.6485 7.3791 -3.29186 25.8094 7.64232 -3.31642 25.9679 
7.83989 -3.37402 26.2293 8.04109 -3.36436 26.4304 8.26715 -3.3842 26.6045 
8.49699 -3.41103 26.778 8.73137 -3.43637 26.9464 8.97179 -3.45984 27.1042 
9.5876 -3.57557 27.8118 9.75589 -3.57634 28.0911 9.79429 -3.58772 28.1902 
9.94901 -3.81435 28.3177 3.3815 -2.83503 24.2276 3.87385 -3.0769 24.4605 
4.15916 -2.86458 24.5194 4.02238 -2.86056 24.5096 4.4447 -2.87783 24.5566 
4.7286 -2.89165 24.6089 4.998 -2.91109 24.7038 5.26492 -2.89161 24.7989 
5.53202 -2.9036 24.8943 5.79649 -2.92239 25.0006 6.05973 -2.9406 25.1163 
6.32213 -2.95837 25.2424 6.58357 -2.9756 25.3815 6.84586 -2.99409 25.5311 
[...]
POINT_DATA 6792
SCALARS scalars float 1
LOOKUP_TABLE default
0.24 0.24 0.24 0.24 0.24 0.24 0.24 0.24 0.24 
0.24 0.24 0.24 0.24 0.24 0.24 0.24 0.24 0.24 
0.24 0.24 0.24 0.24 0.24 0.24 0.24 0.24 0.24 
0.24 0.24 0.24 0.24 0.24 0.24 0.24 0.24 0.24 
0.24 0.24 0.24 0.24 0.24 0.24 0.24 0.24 0.24 
0.24 0.24 0.24 0.24 0.24 0.24 0.24 0.24 0.24 
0.24 0.24 0.24 0.24 0.24 0.24 0.24 0.24 0.24 
0.24 0.24 0.24 0.24 0.24 0.24 0.24 0.24 0.24 
0.24 0.24 0.24 0.24 0.24 0.24 0.24 0.24 0.24 
0.24 0.24 0.24 0.24 0.24 0.24 0.24 0.24 0.24 
0.24 0.24 0.24 0.24 0.24 0.24 0.24 0.24 0.24 
0.24 0.24 0.24 0.24 0.24 0.24 0.24 0.24 0.24 
0.24 0.24 0.24 0.24 0.24 0.24 0.24 0.24 0.24 
0.24 0.24 0.24 0.24 0.24 0.24 0.24 0.24 0.24 
0.24 0.24 0.24 0.24 0.24 0.24 0.24 0.24 0.24 
0.24 0.24 0.24 0.24 0.24 0.24 0.24 0.24 0.24 
0.24 0.24 0.24 0.24 0.24 0.24 0.24 0.24 0.24 
0.24 0.24 0.24 0.24 0.24 0.24 0.24 0.24 0.24 
0.24 0.24 0.24 0.24 0.24 0.24 0.24 0.24 0.24 
0.24 0.24 0.24 0.24 0.24 0.24 0.24 0.24 0.24 
0.24 0.24 0.24 0.24 0.24 0.24 0.24 0.24 0.24 
0.24 0.24 0.24 0.24 0.24 0.24 0.24 0.24 0.24 
0.24 0.24 0.24 0.24 0.24 0.24 0.24 0.24 0.24 
0.24 0.24 0.24 0.24 0.24 0.24 0.24 0.24 0.24 
0.24 0.24 0.24 0.24 0.24 0.24 0.24 0.24 0.24 
0.24 0.24 0.24 0.24 0.24 0.24 0.24 0.24 0.24 
0.24 0.24 0.24 0.24 0.24 0.24 0.24 0.24 0.24 
0.24 0.24 0.24 0.24 0.24 0.24 0.24 0.24 0.24 
0.24 0.24 0.24 0.24 0.24 0.24 0.24 0.24 0.24 
0.24 0.24 0.24 0.24 0.24 0.24 0.24 0.24 0.24 
0.24 0.24 0.24 0.24 0.24 0.24 0.24 0.24 0.24 
0.24 0.24 0.24 0.24 0.24 0.24 0.24 0.24 0.24 
0.24 0.24 0.24 0.24 0.24 0.24 0.24 0.24 0.24 
0.24 0.24 0.24 0.24 0.24 0.24 0.24 0.24 0.24 
0.24 0.24 0.24 0.24 0.24 0.24 0.24 0.24 0.24 
0.24 0.24 0.24 0.24 0.24 0.24 0.24 0.24 0.24 
0.24 0.24 0.24 0.24 0.24 0.24 0.24 0.24 0.24 
0.24 0.24 0.24 0.24 0.24 0.24 0.24 0.24 0.24 
0.24 0.24 0.24 0.24 0.24 0.24 0.24 0.24 0.24 
0.24 0.24 0.24 0.24 0.24 0.24 0.24 0.24 0.24 
0.24 0.24 0.24 0.24 0.24 0.24 0.24 0.24 0.24 
0.24 0.24 0.24 0.24 0.24 0.24 0.24 0.24 0.24 
0.24 0.24 0.24 0.24 0.24 0.24 0.24 0.24 0.24 
0.24 0.24 0.24 0.24 0.24 0.24 0.24 0.24 0.24 
0.24 0.24 0.24 0.24 0.24 0.24 0.24 0.24 0.24 
0.24 0.24 0.24 0.24 0.24 0.24 0.24 0.24 0.24 
0.24 0.24 0.24 0.24 0.24 0.24 0.24 0.24 0.24 
0.24 0.24 0.24 0.24 0.24 0.24 0.24 0.24 0.24 
0.24 0.24 0.24 0.24 0.24 0.24 0.24 0.24 0.24 
0.24 0.24 0.24 0.24 0.24 0.24 0.24 0.24 0.24 
0.24 0.24 0.24 0.24 0.24 0.24 0.24 0.24 0.24 
0.24 0.24 0.24 0.24 0.24 0.24 0.24 0.24 0.24 
0.24 0.24 0.24 0.24 0.24 0.24 0.24 0.24 0.24 
0.24 0.24 0.24 0.24 0.24 0.24 0.24 0.24 0.24 
0.24 0.24 0.24 0.24 0.24 0.24 0.24 0.24 0.24 
0.24 0.24 0.24 0.24 0.24 0.24 0.24 0.24 0.24 
0.24 0.24 0.24 0.24 0.24 0.24 0.24 0.24 0.24 
0.24 0.24 0.24 0.24 0.24 0.24 0.24 0.24 0.24 
0.24 0.24 0.24 0.24 0.24 0.24 0.24 0.24 0.24 
0.24 0.24 0.24 0.24 0.24 0.24 0.24 0.24 0.24 
0.24 0.24 0.24 0.24 0.24 0.24 0.24 0.24 0.24 
0.24 0.24 0.24 0.24 0.24 0.24 0.24 0.24 0.24 
0.24 0.24 0.24 0.24 0.24 0.24 0.24 0.24 0.24 
0.24 0.24 0.24 0.24 0.24 0.24 0.24 0.24 0.24 
0.24 0.24 0.24 0.24 0.24 0.24 0.24 0.24 0.24 
0.24 0.24 0.24 0.24 0.24 0.24 0.24 0.24 0.24 
0.24 0.24 0.24 0.24 0.24 0.24 0.24 0.24 0.24 
0.24 0.24 0.24 0.24 0.24 0.24 0.24 0.24 0.24 
0.24 0.24 0.24 0.24 0.24 0.24 0.24 0.24 0.24 
0.24 0.24 0.24 0.24 0.24 0.24 0.24 0.24 0.24 
0.24 0.24 0.24 0.24 0.24 0.24 0.24 0.24 0.24 
0.24 0.24 0.24 0.24 0.24 0.24 0.24 0.24 0.24 
0.24 0.24 0.24 0.24 0.24 0.24 0.24 0.24 0.24 
0.24 0.24 0.24 0.24 0.24 0.24 0.24 0.24 0.24 
0.24 0.24 0.24 0.24 0.24 0.24 0.24 0.24 0.24 
0.24 0.24 0.24 0.24 0.24 0.24 0.24 0.24 0.24 
0.24 0.24 0.24 0.24 0.24 0.24 0.24 0.24 0.24 
0.24 0.24 0.24 0.24 0.24 0.24 0.24 0.24 0.24 
0.24 0.24 0.24 0.24 0.24 0.24 0.24 0.24 0.24 
0.24 0.24 0.24 0.24 0.24 0.24 0.24 0.24 0.24 
0.24 0.24 0.24 0.24 0.24 0.24 0.24 0.24 0.24 
0.24 0.24 0.24 0.24 0.24 0.24 0.24 0.24 0.24 
0.24 0.24 0.24 0.24 0.24 0.24 0.24 0.24 0.24 
0.24 0.24 0.24 0.24 0.24 0.24 0.24 0.24 0.24 
0.24 0.24 0.24 0.24 0.24 0.24 0.24 0.24 0.24 
0.24 0.24 0.24 0.24 0.24 0.24 0.24 0.24 0.24 
0.24 0.24 0.24 0.24 0.24 0.24 0.24 0.24 0.24 
0.24 0.24 0.24 0.24 0.24 0.24 0.24 0.24 0.24 
0.24 0.24 0.24 0.24 0.24 0.24 0.24 0.24 0.24 
0.24 0.24 0.24 0.24 0.24 0.24 0.24 0.24 0.24 
0.24 0.24 0.24 0.24 0.24 0.24 0.24 0.24 0.24 
0.24 0.24 0.24 0.24 0.24 0.24 0.24 0.24 0.24 
0.24 0.24 0.24 0.24 0.24 0.24 0.24 0.24 0.24 
0.24 0.24 0.24 0.24 0.24 0.24 0.24 0.24 0.24 
0.24 0.24 0.24 0.24 0.24 0.24 0.24 0.24 0.24 
0.24 0.24 0.24 0.24 0.24 0.24 0.24 0.24 0.24 
0.24 0.24 0.24 0.24 0.24 0.24 0.24 0.24 0.24 
0.24 0.24 0.24 0.24 0.24 0.24 0.24 0.24 0.24 
0.24 0.24 0.24 0.24 0.24 0.24 0.24 0.24 0.24 
0.24 0.24 0.24 0.24 0.24 0.24 0.24 0.24 0.24 
0.24 0.24 0.24 0.24 0.24 0.24 0.24 0.24 0.24 
0.24 0.24 0.24 0.24 0.24 0.24 0.24 0.24 0.24 
0.24 0.24 0.24 0.24 0.24 0.24 0.24 0.24 0.24 
0.24 0.24 0.24 0.24 0.24 0.24 0.24 0.24 0.24 
0.24 0.24 0.24 0.24 0.24 0.24 0.24 0.24 0.24 
0.24 0.24 0.24 0.24 0.24 0.24 0.24 0.24 0.24 
0.24 0.24 0.24 0.24 0.24 0.24 0.24 0.24 0.24 
0.24 0.24 0.24 0.24 0.24 0.24 0.24 0.24 0.24 
0.24 0.24 0.24 0.24 0.24 0.24 0.24 0.24 0.24 
0.24 0.24 0.24 0.24 0.24 0.24 0.24 0.24 0.24 
0.24 0.24 0.24 0.24 0.24 0.24 0.24 0.24 0.24 
0.24 0.24 0.24 0.24 0.24 0.24 0.24 0.24 0.24 
0.24 0.24 0.24 0.24 0.24 0.24 0.24 0.24 0.24 
0.24 0.24 0.24 0.24 0.24 0.24 0.24 0.24 0.24 
0.24 0.24 0.24 0.24 0.24 0.24 0.24 0.24 0.24 
0.24 0.24 0.24 0.24 0.24 0.24 0.24 0.24 0.24 
0.24 0.24 0.24 0.24 0.24 0.24 0.24 0.24 0.24 
0.24 0.24 0.24 0.24 0.24 0.24 0.24 0.24 0.24 
0.24 0.24 0.24 0.24 0.24 0.24 0.24 0.24 0.24 
0.24 0.24 0.24 0.24 0.24 0.24 0.24 0.24 0.24 
0.24 0.24 0.24 0.24 0.24 0.24 0.24 0.24 0.24 
0.24 0.24 0.24 0.24 0.24 0.24 0.24 0.24 0.24 
0.24 0.24 0.24 0.24 0.24 0.24 0.24 0.24 0.24 
0.24 0.24 0.24 0.24 0.24 0.24 0.24 0.24 0.24 
0.24 0.24 0.24 0.24 0.24 0.24 0.24 0.24 0.24 
0.24 0.24 0.24 0.24 0.24 0.24 0.24 0.24 0.24 
0.24 0.24 0.24 0.24 0.24 0.24 0.24 0.24 0.24 
0.24 0.24 0.24 0.24 0.24 0.24 0.24 0.24 0.24 
0.24 0.24 0.24 0.24 0.24 0.24 0.24 0.24 0.24 
0.24 0.24 0.24 0.24 0.24 0.24 0.24 0.24 0.24 
0.24 0.24 0.24 0.24 0.24 0.24 0.24 0.24 0.24 
0.24 0.24 0.24 0.24 0.24 0.24 0.24 0.24 0.24 
0.24 0.24 0.24 0.24 0.24 0.24 0.24 0.24 0.24 
0.24 0.24 0.24 0.24 0.24 0.24 0.24 0.24 0.24 
0.24 0.24 0.24 0.24 0.24 0.24 0.24 0.24 0.24 
0.24 0.24 0.24 0.24 0.24 0.24 0.24 0.24 0.24 
0.24 0.24 0.24 0.24 0.24 0.24 0.24 0.24 0.24 
0.24 0.24 0.24 0.24 0.24 0.24 0.24 0.24 0.24 
0.24 0.24 0.24 0.24 0.24 0.24 0.24 0.24 0.24 
0.24 0.24 0.24 0.24 0.24 0.24 0.24 0.24 0.24 
0.24 0.24 0.24 0.24 0.24 0.24 0.24 0.24 0.24 
0.24 0.24 0.24 0.24 0.24 0.24 0.24 0.24 0.24 
0.24 0.24 0.24 0.24 0.24 0.24 0.24 0.24 0.24 
0.24 0.24 0.24 0.24 0.24 0.24 0.24 0.24 0.24 
0.24 0.24 0.24 0.24 0.24 0.24 0.24 0.24 0.24 
0.24 0.24 0.24 0.24 0.24 0.24 0.24 0.24 0.24 
0.24 0.24 0.24 0.24 0.24 0.24 0.24 0.24 0.24 
0.24 0.24 0.24 0.24 0.24 0.24 0.24 0.24 0.24 
0.24 0.24 0.24 0.24 0.24 0.24 0.24 0.24 0.24 
0.24 0.24 0.24 0.24 0.24 0.24 0.24 0.24 0.24 
0.24 0.24 0.24 0.24 0.24 0.24 0.24 0.24 0.24 
0.24 0.24 0.24 0.24 0.24 0.24 0.24 0.24 0.24 
0.24 0.24 0.24 0.24 0.24 0.24 0.24 0.24 0.24 
0.24 0.24 0.24 0.24 0.24 0.24 0.24 0.24 0.24 
0.24 0.24 0.24 0.24 0.24 0.24 0.24 0.24 0.24 
0.24 0.24 0.24 0.24 0.24 0.24 0.24 0.24 0.24 
0.24 0.24 0.24 0.24 0.24 0.24 0.24 0.24 0.24 
0.24 0.24 0.24 0.24 0.24 0.24 0.24 0.24 0.24 
0.24 0.24 0.24 0.24 0.24 0.24 0.24 0.24 0.24 
0.24 0.24 0.24 0.24 0.24 0.24 0.24 0.24 0.24 
0.24 0.24 0.24 0.24 0.24 0.24 0.24 0.24 0.24 
0.24 0.24 0.24 0.24 0.24 0.24 0.24 0.24 0.24 
0.24 0.24 0.24 0.24 0.24 0.24 0.24 0.24 0.24 
0.24 0.24 0.24 0.24 0.24 0.24 0.24 0.24 0.24 
0.24 0.24 0.24 0.24 0.24 0.24 0.24 0.24 0.24 
0.24 0.24 0.24 0.24 0.24 0.24 0.24 0.24 0.24 
0.24 0.24 0.24 0.24 0.24 0.24 0.24 0.24 0.24 
0.24 0.24 0.24 0.24 0.24 0.24 0.24 0.24 0.24 
0.24 0.24 0.24 0.24 0.24 0.24 0.24 0.24 0.24 
0.24 0.24 0.24 0.24 0.24 0.24 0.24 0.24 0.24 
0.24 0.24 0.24 0.24 0.24 0.24 0.24 0.24 0.24 
0.24 0.24 0.24 0.24 0.24 0.24 0.24 0.24 0.24 
0.24 0.24 0.24 0.24 0.24 0.24 0.24 0.24 0.24 
0.24 0.24 0.24 0.24 0.24 0.24 0.24 0.24 0.24 
0.24 0.24 0.24 0.24 0.24 0.24 0.24 0.24 0.24 
0.24 0.24 0.24 0.24 0.24 0.24 0.24 0.24 0.24 
0.24 0.24 0.24 0.24 0.24 0.24 0.24 0.24 0.24 
0.24 0.24 0.24 0.24 0.24 0.24 0.24 0.24 0.24 
0.24 0.24 0.24 0.24 0.24 0.24 0.24 0.24 0.24 
0.24 0.24 0.24 0.24 0.24 0.24 0.24 0.24 0.24 
0.24 0.24 0.24 0.24 0.24 0.24 0.24 0.24 0.24 
0.24 0.24 0.24 0.24 0.24 0.24 0.24 0.24 0.24 
0.24 0.24 0.24 0.24 0.24 0.24 0.24 0.24 0.24 
0.24 0.24 0.24 0.24 0.24 0.24 0.24 0.24 0.24 
0.24 0.24 0.24 0.24 0.24 0.24 0.24 0.24 0.24 
0.24 0.24 0.24 0.24 0.24 0.24 0.24 0.24 0.24 
0.24 0.24 0.24 0.24 0.24 0.24 0.24 0.24 0.24 
0.24 0.24 0.24 0.24 0.24 0.24 0.24 0.24 0.24 
0.24 0.24 0.24 0.24 0.24 0.24 0.24 0.24 0.24 
0.24 0.24 0.24 0.24 0.24 0.24 0.24 0.24 0.24 
0.24 0.24 0.24 0.24 0.24 0.24 0.24 0.24 0.24 
0.24 0.24 0.24 0.24 0.24 0.24 0.24 0.24 0.24 
0.24 0.24 0.24 0.24 0.24 0.24 0.24 0.24 0.24 
0.24 0.24 0.24 0.24 0.24 0.24 0.24 0.24 0.24 
0.24 0.24 0.24 0.24 0.24 0.24 0.24 0.24 0.24 
0.24 0.24 0.24 0.24 0.24 0.24 0.24 0.24 0.24 
0.24 0.24 0.24 0.24 0.24 0.24 0.24 0.24 0.24 
0.24 0.24 0.24 0.24 0.24 0.24 0.24 0.24 0.24 
0.24 0.24 0.24 0.24 0.24 0.24 0.24 0.24 0.24 
0.24 0.24 0.24 0.24 0.24 0.24 0.24 0.24 0.24 
0.24 0.24 0.24 0.24 0.24 0.24 0.24 0.24 0.24 
0.24 0.24 0.24 0.24 0.24 0.24 0.24 0.24 0.24 
0.24 0.24 0.24 0.24 0.24 0.24 0.24 0.24 0.24 
0.24 0.24 0.24 0.24 0.24 0.24 0.24 0.24 0.24 
0.24 0.24 0.24 0.24 0.24 0.24 0.24 0.24 0.24 
0.24 0.24 0.24 0.24 0.24 0.24 0.24 0.24 0.24 
0.24 0.24 0.24 0.24 0.24 0.24 0.24 0.24 0.24 
0.24 0.24 0.24 0.24 0.24 0.24 0.24 0.24 0.24 
0.24 0.24 0.24 0.24 0.24 0.24 0.24 0.24 0.24 
0.24 0.24 0.24 0.24 0.24 0.24 0.24 0.24 0.24 
0.24 0.24 0.24 0.24 0.24 0.24 0.24 0.24 0.24 
0.24 0.24 0.24 0.24 0.24 0.24 0.24 0.24 0.24 
0.24 0.24 0.24 0.24 0.24 0.24 0.24 0.24 0.24 
0.24 0.24 0.24 0.24 0.24 0.24 0.24 0.24 0.24 
0.24 0.24 0.24 0.24 0.24 0.24 0.24 0.24 0.24 
0.24 0.24 0.24 0.24 0.24 0.24 0.24 0.24 0.24 
0.24 0.24 0.24 0.24 0.24 0.24 0.24 0.24 0.24 
0.24 0.24 0.24 0.24 0.24 0.24 0.24 0.24 0.24 
0.24 0.24 0.24 0.24 0.24 0.24 0.24 0.24 0.24 
0.24 0.24 0.24 0.24 0.24 0.24 0.24 0.24 0.24 
0.24 0.24 0.24 0.24 0.24 0.24 0.24 0.24 0.24 
0.24 0.24 0.24 0.24 0.24 0.24 0.24 0.24 0.24 
0.24 0.24 0.24 0.24 0.24 0.24 0.24 0.24 0.24 
0.24 0.24 0.24 0.24 0.24 0.24 0.24 0.24 0.24 
0.24 0.24 0.24 0.24 0.24 0.24 0.24 0.24 0.24 
0.24 0.24 0.24 0.24 0.24 0.24 0.24 0.24 0.24 
0.24 0.24 0.24 0.24 0.24 0.24 0.24 0.24 0.24 
0.24 0.24 0.24 0.24 0.24 0.24 0.24 0.24 0.24 
0.24 0.24 0.24 0.24 0.24 0.24 0.24 0.24 0.24 
0.24 0.24 0.24 0.24 0.24 0.24 0.24 0.24 0.24 
0.24 0.24 0.24 0.24 0.24 0.24 0.24 0.24 0.24 
0.24 0.24 0.24 0.24 0.24 0.24 0.24 0.24 0.24 
0.24 0.24 0.24 0.24 0.24 0.24 0.24 0.24 0.24 
0.24 0.24 0.24 0.24 0.24 0.24 0.24 0.24 0.24 
0.24 0.24 0.24 0.24 0.24 0.24 0.24 0.24 0.24 
0.24 0.24 0.24 0.24 0.24 0.24 0.24 0.24 0.24 
0.24 0.24 0.24 0.24 0.24 0.24 0.24 0.24 0.24 
0.24 0.24 0.24 0.24 0.24 0.24 0.24 0.24 0.24 
0.24 0.24 0.24 0.24 0.24 0.24 0.24 0.24 0.24 
0.24 0.24 0.24 0.24 0.24 0.24 0.24 0.24 0.24 
0.24 0.24 0.24 0.24 0.24 0.24 0.24 0.24 0.24 
0.24 0.24 0.24 0.24 0.24 0.24 0.24 0.24 0.24 
0.24 0.24 0.24 0.24 0.24 0.24 0.24 0.24 0.24 
0.24 0.24 0.24 0.24 0.24 0.24 0.24 0.24 0.24 
0.24 0.24 0.24 0.24 0.24 0.24 0.24 0.24 0.24 
0.24 0.24 0.24 0.24 0.24 0.24 0.24 0.24 0.24 
0.24 0.24 0.24 0.24 0.24 0.24 0.24 0.24 0.24 
0.24 0.24 0.24 0.24 0.24 0.24 0.24 0.24 0.24 
0.24 0.24 0.24 0.24 0.24 0.24 0.24 0.24 0.24 
0.24 0.24 0.24 0.24 0.24 0.24 0.24 0.24 0.24 
0.24 0.24 0.24 0.24 0.24 0.24 0.24 0.24 0.24 
0.24 0.24 0.24 0.24 0.24 0.24 0.24 0.24 0.24 
0.24 0.24 0.24 0.24 0.24 0.24 0.24 0.24 0.24 
0.24 0.24 0.24 0.24 0.24 0.24 0.24 0.24 0.24 
0.24 0.24 0.24 0.24 0.24 0.24 0.24 0.24 0.24 
0.24 0.24 0.24 0.24 0.24 0.24 0.24 0.24 0.24 
0.24 0.24 0.24 0.24 0.24 0.24 0.24 0.24 0.24 
0.24 0.24 0.24 0.24 0.24 0.24 0.24 0.24 0.24 
0.24 0.24 0.24 0.24 0.24 0.24 0.24 0.24 0.24 
0.24 0.24 0.24 0.24 0.24 0.24 0.24 0.24 0.24 
0.24 0.24 0.24 0.24 0.24 0.24 0.24 0.24 0.24 
0.24 0.24 0.24 0.24 0.24 0.24 0.24 0.24 0.24 
0.24 0.24 0.24 0.24 0.24 0.24 0.24 0.24 0.24 
0.24 0.24 0.24 0.24 0.24 0.24 0.24 0.24 0.24 
0.24 0.24 0.24 0.24 0.24 0.24 0.24 0.24 0.24 
0.24 0.24 0.24 0.24 0.24 0.24 0.24 0.24 0.24 
0.24 0.24 0.24 0.24 0.24 0.24 0.24 0.24 0.24 
0.24 0.24 0.24 0.24 0.24 0.24 0.24 0.24 0.24 
0.24 0.24 0.24 0.24 0.24 0.24 0.24 0.24 0.24 
0.24 0.24 0.24 0.24 0.24 0.24 0.24 0.24 0.24 
0.24 0.24 0.24 0.24 0.24 0.24 0.24 0.24 0.24 
0.24 0.24 0.24 0.24 0.24 0.24 0.24 0.24 0.24 
0.24 0.24 0.24 0.24 0.24 0.24 0.24 0.24 0.24 
0.24 0.24 0.24 0.24 0.24 0.24 0.24 0.24 0.24 
0.24 0.24 0.24 0.24 0.24 0.24 0.24 0.24 0.24 
0.24 0.24 0.24 0.24 0.24 0.24 0.24 0.24 0.24 
0.24 0.24 0.24 0.24 0.24 0.24 0.24 0.24 0.24 
0.24 0.24 0.24 0.24 0.24 0.24 0.24 0.24 0.24 
0.24 0.24 0.24 0.24 0.24 0.24 0.24 0.24 0.24 
0.24 0.24 0.24 0.24 0.24 0.24 0.24 0.24 0.24 
0.24 0.24 0.24 0.24 0.24 0.24 0.24 0.24 0.24 
0.24 0.24 0.24 0.24 0.24 0.24 0.24 0.24 0.24 
0.24 0.24 0.24 0.24 0.24 0.24 0.24 0.24 0.24 
0.24 0.24 0.24 0.24 0.24 0.24 0.24 0.24 0.24 
0.24 0.24 0.24 0.24 0.24 0.24 0.24 0.24 0.24 
0.24 0.24 0.24 0.24 0.24 0.24 0.24 0.24 0.24 
0.24 0.24 0.24 0.24 0.24 0.24 0.24 0.24 0.24 
0.24 0.24 0.24 0.24 0.24 0.24 0.24 0.24 0.24 
0.24 0.24 0.24 0.24 0.24 0.24 0.24 0.24 0.24 
0.24 0.24 0.24 0.24 0.24 0.24 0.24 0.24 0.24 
0.24 0.24 0.24 0.24 0.24 0.24 0.24 0.24 0.24 
0.24 0.24 0.24 0.24 0.24 0.24 0.24 0.24 0.24 
0.24 0.24 0.24 0.24 0.24 0.24 0.24 0.24 0.24 
0.24 0.24 0.24 0.24 0.24 0.24 0.24 0.24 0.24 
0.24 0.24 0.24 0.24 0.24 0.24 0.24 0.24 0.24 
0.24 0.24 0.24 0.24 0.24 0.24 0.24 0.24 0.24 
0.24 0.24 0.24 0.24 0.24 0.24 0.24 0.24 0.24 
0.24 0.24 0.24 0.24 0.24 0.24 0.24 0.24 0.24 
0.24 0.24 0.24 0.24 0.24 0.24 0.24 0.24 0.24 
0.24 0.24 0.24 0.24 0.24 0.24 0.24 0.24 0.24 
0.24 0.24 0.24 0.24 0.24 0.24 0.24 0.24 0.24 
0.24 0.24 0.24 0.24 0.24 0.24 0.24 0.24 0.24 
0.24 0.24 0.24 0.24 0.24 0.24 0.24 0.24 0.24 
0.24 0.24 0.24 0.24 0.24 0.24 0.24 0.24 0.24 
0.24 0.24 0.24 0.24 0.24 0.24 0.24 0.24 0.24 
0.24 0.24 0.24 0.24 0.24 0.24 0.24 0.24 0.24 
0.24 0.24 0.24 0.24 0.24 0.24 0.24 0.24 0.24 
0.24 0.24 0.24 0.24 0.24 0.24 0.24 0.24 0.24 
0.24 0.24 0.24 0.24 0.24 0.24 0.24 0.24 0.24 
0.24 0.24 0.24 0.24 0.24 0.24 0.24 0.24 0.24 
0.24 0.24 0.24 0.24 0.24 0.24 0.24 0.24 0.24 
0.24 0.24 0.24 0.24 0.24 0.24 0.24 0.24 0.24 
0.24 0.24 0.24 0.24 0.24 0.24 0.24 0.24 0.24 
0.24 0.24 0.24 0.24 0.24 0.24 0.24 0.24 0.24 
0.24 0.24 0.24 0.24 0.24 0.24 0.24 0.24 0.24 
0.24 0.24 0.24 0.24 0.24 0.24 0.24 0.24 0.24 
0.24 0.24 0.24 0.24 0.24 0.24 0.24 0.24 0.24 
0.24 0.24 0.24 0.24 0.24 0.24 0.24 0.24 0.24 
0.24 0.24 0.24 0.24 0.24 0.24 0.24 0.24 0.24 
0.24 0.24 0.24 0.24 0.24 0.24 0.24 0.24 0.24 
0.24 0.24 0.24 0.24 0.24 0.24 0.24 0.24 0.24 
0.24 0.24 0.24 0.24 0.24 0.24 0.24 0.24 0.24 
0.24 0.24 0.24 0.24 0.24 0.24 0.24 0.24 0.24 
0.24 0.24 0.24 0.24 0.24 0.24 0.24 0.24 0.24 
0.24 0.24 0.24 0.24 0.24 0.24 0.24 0.24 0.24 
0.24 0.24 0.24 0.24 0.24 0.24 0.24 0.24 0.24 
0.24 0.24 0.24 0.24 0.24 0.24 0.24 0.24 0.24 
0.24 0.24 0.24 0.24 0.24 0.24 0.24 0.24 0.24 
0.24 0.24 0.24 0.24 0.24 0.24 0.24 0.24 0.24 
0.24 0.24 0.24 0.24 0.24 0.24 0.24 0.24 0.24 
0.24 0.24 0.24 0.24 0.24 0.24 0.24 0.24 0.24 
0.24 0.24 0.24 0.24 0.24 0.24 0.24 0.24 0.24 
0.24 0.24 0.24 0.24 0.24 0.24 0.24 0.24 0.24 
0.24 0.24 0.24 0.24 0.24 0.24 0.24 0.24 0.24 
0.24 0.24 0.24 0.24 0.24 0.24 0.24 0.24 0.24 
0.24 0.24 0.24 0.24 0.24 0.24 0.24 0.24 0.24 
0.24 0.24 0.24 0.24 0.24 0.24 0.24 0.24 0.24 
0.24 0.24 0.24 0.24 0.24 0.24 0.24 0.24 0.24 
0.24 0.24 0.24 0.24 0.24 0.24 0.24 0.24 0.24 
0.24 0.24 0.24 0.24 0.24 0.24 0.24 0.24 0.24 
0.24 0.24 0.24 0.24 0.24 0.24 0.24 0.24 0.24 
0.24 0.24 0.24 0.24 0.24 0.24 0.24 0.24 0.24 
0.24 0.24 0.24 0.24 0.24 0.24 0.24 0.24 0.24 
0.24 0.24 0.24 0.24 0.24 0.24 0.24 0.24 0.24 
0.24 0.24 0.24 0.24 0.24 0.24 0.24 0.24 0.24 
0.24 0.24 0.24 0.24 0.24 0.24 0.24 0.24 0.24 
0.24 0.24 0.24 0.24 0.24 0.24 0.24 0.24 0.24 
0.24 0.24 0.24 0.24 0.24 0.24 0.24 0.24 0.24 
0.24 0.24 0.24 0.24 0.24 0.24 0.24 0.24 0.24 
0.24 0.24 0.24 0.24 0.24 0.24 0.24 0.24 0.24 
0.24 0.24 0.24 0.24 0.24 0.24 0.24 0.24 0.24 
0.24 0.24 0.24 0.24 0.24 0.24 0.24 0.24 0.24 
0.24 0.24 0.24 0.24 0.24 0.24 0.24 0.24 0.24 
0.24 0.24 0.24 0.24 0.24 0.24 0.24 0.24 0.24 
0.24 0.24 0.24 0.24 0.24 0.24 0.24 0.24 0.24 
0.24 0.24 0.24 0.24 0.24 0.24 0.24 0.24 0.24 
0.24 0.24 0.24 0.24 0.24 0.24 0.24 0.24 0.24 
0.24 0.24 0.24 0.24 0.24 0.24 0.24 0.24 0.24 
0.24 0.24 0.24 0.24 0.24 0.24 0.24 0.24 0.24 
0.24 0.24 0.24 0.24 0.24 0.24 0.24 0.24 0.24 
0.24 0.24 0.24 0.24 0.24 0.24 0.24 0.24 0.24 
0.24 0.24 0.24 0.24 0.24 0.24 0.24 0.24 0.24 
0.24 0.24 0.24 0.24 0.24 0.24 0.24 0.24 0.24 
0.24 0.24 0.24 0.24 0.24 0.24 0.24 0.24 0.24 
0.24 0.24 0.24 0.24 0.24 0.24 0.24 0.24 0.24 
0.24 0.24 0.24 0.24 0.24 0.24 0.24 0.24 0.24 
0.24 0.24 0.24 0.24 0.24 0.24 0.24 0.24 0.24 
0.24 0.24 0.24 0.24 0.24 0.24 0.24 0.24 0.24 
0.24 0.24 0.24 0.24 0.24 0.24 0.24 0.24 0.24 
0.24 0.24 0.24 0.24 0.24 0.24 0.24 0.24 0.24 
0.24 0.24 0.24 0.24 0.24 0.24 0.24 0.24 0.24 
0.24 0.24 0.24 0.24 0.24 0.24 0.24 0.24 0.24 
0.24 0.24 0.24 0.24 0.24 0.24 0.24 0.24 0.24 
0.24 0.24 0.24 0.24 0.24 0.24 0.24 0.24 0.24 
0.24 0.24 0.24 0.24 0.24 0.24 0.24 0.24 0.24 
0.24 0.24 0.24 0.24 0.24 0.24 0.24 0.24 0.24 
0.24 0.24 0.24 0.24 0.24 0.24 0.24 0.24 0.24 
0.24 0.24 0.24 0.24 0.24 0.24 0.24 0.24 0.24 
0.24 0.24 0.24 0.24 0.24 0.24 0.24 0.24 0.24 
0.24 0.24 0.24 0.24 0.24 0.24 0.24 0.24 0.24 
0.24 0.24 0.24 0.24 0.24 0.24 0.24 0.24 0.24 
0.24 0.24 0.24 0.24 0.24 0.24 0.24 0.24 0.24 
0.24 0.24 0.24 0.24 0.24 0.24 0.24 0.24 0.24 
0.24 0.24 0.24 0.24 0.24 0.24 0.24 0.24 0.24 
0.24 0.24 0.24 0.24 0.24 0.24 0.24 0.24 0.24 
0.24 0.24 0.24 0.24 0.24 0.24 0.24 0.24 0.24 
0.24 0.24 0.24 0.24 0.24 0.24 0.24 0.24 0.24 
0.24 0.24 0.24 0.24 0.24 0.24 0.24 0.24 0.24 
0.24 0.24 0.24 0.24 0.24 0.24 0.24 0.24 0.24 
0.24 0.24 0.24 0.24 0.24 0.24 0.24 0.24 0.24 
0.24 0.24 0.24 0.24 0.24 0.24 0.24 0.24 0.24 
0.24 0.24 0.24 0.24 0.24 0.24 0.24 0.24 0.24 
0.24 0.24 0.24 0.24 0.24 0.24 0.24 0.24 0.24 
0.24 0.24 0.24 0.24 0.24 0.24 0.24 0.24 0.24 
0.24 0.24 0.24 0.24 0.24 0.24 0.24 0.24 0.24 
0.24 0.24 0.24 0.24 0.24 0.24 0.24 0.24 0.24 
0.24 0.24 0.24 0.24 0.24 0.24 0.24 0.24 0.24 
0.24 0.24 0.24 0.24 0.24 0.24 0.24 0.24 0.24 
0.24 0.24 0.24 0.24 0.24 0.24 0.24 0.24 0.24 
0.24 0.24 0.24 0.24 0.24 0.24 0.24 0.24 0.24 
0.24 0.24 0.24 0.24 0.24 0.24 0.24 0.24 0.24 
0.24 0.24 0.24 0.24 0.24 0.24 0.24 0.24 0.24 
0.24 0.24 0.24 0.24 0.24 0.24 0.24 0.24 0.24 
0.24 0.24 0.24 0.24 0.24 0.24 0.24 0.24 0.24 
0.24 0.24 0.24 0.24 0.24 0.24 0.24 0.24 0.24 
0.24 0.24 0.24 0.24 0.24 0.24 0.24 0.24 0.24 
0.24 0.24 0.24 0.24 0.24 0.24 0.24 0.24 0.24 
0.24 0.24 0.24 0.24 0.24 0.24 0.24 0.24 0.24 
0.24 0.24 0.24 0.24 0.24 0.24 0.24 0.24 0.24 
0.24 0.24 0.24 0.24 0.24 0.24 0.24 0.24 0.24 
0.24 0.24 0.24 0.24 0.24 0.24 0.24 0.24 0.24 
0.24 0.24 0.24 0.24 0.24 0.24 0.24 0.24 0.24 
0.24 0.24 0.24 0.24 0.24 0.24 0.24 0.24 0.24 
0.24 0.24 0.24 0.24 0.24 0.24 0.24 0.24 0.24 
0.24 0.24 0.24 0.24 0.24 0.24 0.24 0.24 0.24 
0.24 0.24 0.24 0.24 0.24 0.24 0.24 0.24 0.24 
0.24 0.24 0.24 0.24 0.24 0.24 0.24 0.24 0.24 
0.24 0.24 0.24 0.24 0.24 0.24 0.24 0.24 0.24 
0.24 0.24 0.24 0.24 0.24 0.24 0.24 0.24 0.24 
0.24 0.24 0.24 0.24 0.24 0.24 0.24 0.24 0.24 
0.24 0.24 0.24 0.24 0.24 0.24 0.24 0.24 0.24 
0.24 0.24 0.24 0.24 0.24 0.24 0.24 0.24 0.24 
0.24 0.24 0.24 0.24 0.24 0.24 0.24 0.24 0.24 
0.24 0.24 0.24 0.24 0.24 0.24 0.24 0.24 0.24 
0.24 0.24 0.24 0.24 0.24 0.24 0.24 0.24 0.24 
0.24 0.24 0.24 0.24 0.24 0.24 0.24 0.24 0.24 
0.24 0.24 0.24 0.24 0.24 0.24 0.24 0.24 0.24 
0.24 0.24 0.24 0.24 0.24 0.24 0.24 0.24 0.24 
0.24 0.24 0.24 0.24 0.24 0.24 0.24 0.24 0.24 
0.24 0.24 0.24 0.24 0.24 0.24 0.24 0.24 0.24 
0.24 0.24 0.24 0.24 0.24 0.24 0.24 0.24 0.24 
0.24 0.24 0.24 0.24 0.24 0.24 0.24 0.24 0.24 
0.24 0.24 0.24 0.24 0.24 0.24 0.24 0.24 0.24 