# vtk DataFile Version 2.0
A piece of ENSA Output (Thanks to Chris Whiting and Dr. Ken Jansen RPI SCOREC)
ASCII
DATASET UNSTRUCTURED_GRID
POINTS 19694 float
-0.464095 1.5246 0.1 -0.54118 1.43029 0.1 -0.586651 1.55759 0.1 
-0.54118 1.43029 0 -0.586651 1.55759 0 -0.464095 1.5246 0 
2.09551 1.56291 0.1 2.13018 1.5028 0.1 2.05757 1.50842 0.1 
2.05757 1.50842 0 2.13018 1.5028 0 2.09551 1.56291 0 
1.70648 1.58265 0.1 1.72978 1.50308 0.1 1.65728 1.52397 0.1 
1.65728 1.52397 0 1.72978 1.50308 0 1.70648 1.58265 0 
2.32446 1.5626 0.1 2.37404 1.50798 0.1 2.29004 1.48205 0.1 
2.29004 1.48205 0 2.37404 1.50798 0 2.32446 1.5626 0 
2.24815 1.57073 0.1 2.20247 1.65502 0.1 2.30577 1.65035 0.1 
2.30577 1.65035 0 2.20247 1.65502 0 2.24815 1.57073 0 
2.16478 1.5715 0.1 2.20335 1.49457 0.1 2.20335 1.49457 0 
2.16478 1.5715 0 -0.231662 2.17839 0.1 -0.052323 2.05105 0.1 
-0.217097 1.96732 0.1 -0.217097 1.96732 0 -0.052323 2.05105 0 
-0.231662 2.17839 0 -1.3878 0.748266 0.1 -1.30469 0.749519 0.1 
-1.3474 0.680965 0.1 -1.30469 0.749519 0 -1.3474 0.680965 0 
-1.3878 0.748266 0 -2.08111 1.90857 0.1 -2.29774 1.937 0.1 
-2.15508 2.13388 0.1 -2.15508 2.13388 0 -2.29774 1.937 0 
-2.08111 1.90857 0 -1.1525 1.93785 0.1 -1.26053 1.81051 0.1 
-1.35339 1.94716 0.1 -1.26053 1.81051 0 -1.35339 1.94716 0 
-1.1525 1.93785 0 -1.96521 0.851081 0.1 -1.78009 0.849674 0.1 
-1.85277 0.742251 0.1 -1.78009 0.849674 0 -1.85277 0.742251 0 
-1.96521 0.851081 0 -0.750104 1.41989 0.1 -0.677749 1.35207 0.1 
-0.758814 1.31308 0.1 -0.677749 1.35207 0 -0.758814 1.31308 0 
-0.750104 1.41989 0 -0.833354 1.67489 0.1 -0.718811 1.55451 0.1 
-0.852664 1.50562 0.1 -0.852664 1.50562 0 -0.718811 1.55451 0 
-0.833354 1.67489 0 -1.03377 1.23915 0.1 -0.941769 1.29168 0.1 
-0.950192 1.18475 0.1 -0.950192 1.18475 0 -0.941769 1.29168 0 
-1.03377 1.23915 0 -1.50377 2.11978 0.1 -1.28581 2.12187 0.1 
-1.28581 2.12187 0 -1.50377 2.11978 0 -0.371181 1.52441 0.1 
-0.313755 1.47423 0.1 -0.392381 1.45364 0.1 -0.313755 1.47423 0 
-0.392381 1.45364 0 -0.371181 1.52441 0 -1.85997 1.52857 0.1 
-1.99849 1.68896 0.1 -1.76278 1.70751 0.1 -1.76278 1.70751 0 
-1.99849 1.68896 0 -1.85997 1.52857 0 -0.851266 1.36883 0.1 
-0.833942 1.2641 0.1 -0.833942 1.2641 0 -0.851266 1.36883 0 
-0.883935 1.21246 0.1 -0.883935 1.21246 0 -0.291561 1.57284 0.1 
-0.23352 1.65538 0.1 -0.177898 1.57166 0.1 -0.23352 1.65538 0 
-0.177898 1.57166 0 -0.291561 1.57284 0 0.195759 1.59204 0.1 
0.245982 1.49127 0.1 0.154227 1.5011 0.1 0.154227 1.5011 0 
0.245982 1.49127 0 0.195759 1.59204 0 -0.993106 -0.338584 0.1 
-0.959527 -0.310008 0.1 -0.950645 -0.349495 0.1 -0.959527 -0.310008 0 
-0.950645 -0.349495 0 -0.993106 -0.338584 0 -0.500431 1.67169 0.1 
-0.500431 1.67169 0 -1.0499 -0.017567 0.1 -1.00866 0.001487 0.1 
-1.01215 -0.038812 0.1 -1.00866 0.001487 0 -1.01215 -0.038812 0 
-1.0499 -0.017567 0 -1.00239 0.310026 0.1 -0.958421 0.313422 0.1 
-0.974452 0.276256 0.1 -0.958421 0.313422 0 -0.974452 0.276256 0 
-1.00239 0.310026 0 -0.85746 0.604699 0.1 -0.814586 0.594344 0.1 
-0.841325 0.563955 0.1 -0.814586 0.594344 0 -0.841325 0.563955 0 
-0.85746 0.604699 0 -1.04188 0.637116 0.1 -0.980986 0.633444 0.1 
-1.01118 0.587972 0.1 -0.980986 0.633444 0 -1.01118 0.587972 0 
-1.04188 0.637116 0 -1.18779 0.283908 0.1 -1.12874 0.299216 0.1 
-1.1434 0.246646 0.1 -1.12874 0.299216 0 -1.1434 0.246646 0 
-1.18779 0.283908 0 -0.631058 0.839259 0.1 -0.591382 0.817106 0.1 
-0.626048 0.796253 0.1 -0.591382 0.817106 0 -0.626048 0.796253 0 
-0.631058 0.839259 0 -0.338054 0.993286 0.1 -0.30944 0.95971 0.1 
-0.34894 0.950849 0.1 -0.30944 0.95971 0 -0.34894 0.950849 0 
-0.338054 0.993286 0 0.746441 1.41215 0.1 0.704206 1.47493 0.1 
0.783669 1.49623 0.1 0.704206 1.47493 0 0.783669 1.49623 0 
0.746441 1.41215 0 -0.468269 1.1279 0.1 -0.42114 1.08913 0.1 
-0.472305 1.07011 0.1 -0.42114 1.08913 0 -0.472305 1.07011 0 
-0.468269 1.1279 0 0.02461 1.05437 0.1 0.042297 1.01114 0.1 
0.002951 1.01425 0.1 0.042297 1.01114 0 0.002951 1.01425 0 
0.02461 1.05437 0 -0.051925 1.46141 0.1 -0.100117 1.51546 0.1 
-0.032971 1.52626 0.1 -0.032971 1.52626 0 -0.100117 1.51546 0 
-0.051925 1.46141 0 0.460578 1.01557 0.1 0.433878 0.96018 0.1 
0.40816 1.01017 0.1 0.40816 1.01017 0 0.433878 0.96018 0 
0.460578 1.01557 0 -0.036309 1.21424 0.1 -0.011026 1.16156 0.1 
-0.065727 1.16389 0.1 -0.011026 1.16156 0 -0.065727 1.16389 0 
-0.036309 1.21424 0 -0.131708 1.26901 0.1 -0.156221 1.21093 0.1 
-0.19914 1.25872 0.1 -0.156221 1.21093 0 -0.19914 1.25872 0 
-0.131708 1.26901 0 -0.018395 1.05971 0.1 -0.018395 1.05971 0 
0.109685 1.432 0.1 0.187253 1.42122 0.1 0.187253 1.42122 0 
0.109685 1.432 0 0.82352 1.44081 0.1 0.867305 1.49868 0.1 
0.867305 1.49868 0 0.82352 1.44081 0 0.277703 1.15179 0.1 
0.28323 1.101 0.1 0.22027 1.13295 0.1 0.22027 1.13295 0 
0.28323 1.101 0 0.277703 1.15179 0 0.430149 1.24167 0.1 
0.479444 1.27681 0.1 0.48218 1.21415 0.1 0.48218 1.21415 0 
0.479444 1.27681 0 0.430149 1.24167 0 0.462256 0.909813 0.1 
0.41955 0.917895 0.1 0.462256 0.909813 0 0.41955 0.917895 0 
0.514303 0.917828 0.1 0.485183 0.964555 0.1 0.485183 0.964555 0 
0.514303 0.917828 0 0.49242 0.877493 0.1 0.49242 0.877493 0 
0.529207 0.864585 0.1 0.529207 0.864585 0 0.565281 0.868276 0.1 
0.562579 0.834075 0.1 0.562579 0.834075 0 0.565281 0.868276 0 
1.19603 0.676571 0.1 1.20957 0.729043 0.1 1.25574 0.691485 0.1 
1.25574 0.691485 0 1.20957 0.729043 0 1.19603 0.676571 0 
0.528776 1.24346 0.1 0.554163 1.29659 0.1 0.578379 1.23787 0.1 
0.578379 1.23787 0 0.554163 1.29659 0 0.528776 1.24346 0 
0.825219 0.631549 0.1 0.812831 0.592667 0.1 0.789242 0.623195 0.1 
0.812831 0.592667 0 0.789242 0.623195 0 0.825219 0.631549 0 
1.00576 0.902556 0.1 0.990376 0.858034 0.1 0.958751 0.892233 0.1 
0.990376 0.858034 0 0.958751 0.892233 0 1.00576 0.902556 0 
0.130741 1.20264 0.1 0.100007 1.16515 0.1 0.075813 1.20526 0.1 
0.100007 1.16515 0 0.075813 1.20526 0 0.130741 1.20264 0 
-1.31905 0.427548 0.1 -1.25438 0.442946 0.1 -1.27612 0.376293 0.1 
-1.25438 0.442946 0 -1.27612 0.376293 0 -1.31905 0.427548 0 
-0.189664 1.43291 0.1 -0.217264 1.36987 0.1 -0.262966 1.42105 0.1 
-0.217264 1.36987 0 -0.262966 1.42105 0 -0.189664 1.43291 0 
0.622996 1.57661 0.1 0.649461 1.51026 0.1 0.569095 1.49354 0.1 
0.569095 1.49354 0 0.649461 1.51026 0 0.622996 1.57661 0 
0.120277 2.2092 0.1 0.106968 2.029 0.1 0.106968 2.029 0 
0.120277 2.2092 0 1.19013 1.80622 0.1 1.25062 1.96321 0.1 
1.33642 1.82084 0.1 1.25062 1.96321 0 1.33642 1.82084 0 
1.19013 1.80622 0 1.12901 1.58126 0.1 1.17159 1.48815 0.1 
1.09336 1.51089 0.1 1.09336 1.51089 0 1.17159 1.48815 0 
1.12901 1.58126 0 1.22747 1.58679 0.1 1.1693 1.67567 0.1 
1.1693 1.67567 0 1.22747 1.58679 0 -0.428632 1.31868 0.1 
-0.378607 1.27516 0.1 -0.44537 1.25373 0.1 -0.378607 1.27516 0 
-0.44537 1.25373 0 -0.428632 1.31868 0 0.251529 2.11438 0.1 
0.308116 2.28564 0.1 0.308116 2.28564 0 0.251529 2.11438 0 
0.494129 1.71037 0.1 0.64988 1.77624 0.1 0.595217 1.66271 0.1 
0.595217 1.66271 0 0.64988 1.77624 0 0.494129 1.71037 0 
0.518014 0.008874 0.1 0.5 0 0.1 0.499662 0.018374 0.1 
0.5 0 0 0.499662 0.018374 0 0.518014 0.008874 0 
2.0137 1.59592 0.1 1.91573 1.65865 0.1 2.01859 1.72378 0.1 
1.91573 1.65865 0 2.01859 1.72378 0 2.0137 1.59592 0 
0.710871 1.90517 0.1 0.837923 1.96648 0.1 0.825839 1.83358 0.1 
0.825839 1.83358 0 0.837923 1.96648 0 0.710871 1.90517 0 
1.02999 1.57069 0.1 0.939448 1.64257 0.1 1.05862 1.66082 0.1 
0.939448 1.64257 0 1.05862 1.66082 0 1.02999 1.57069 0 
0.852958 -0.093439 0.1 0.824784 -0.113567 0.1 0.827873 -0.077528 0.1 
0.824784 -0.113567 0 0.827873 -0.077528 0 0.852958 -0.093439 0 
0.68708 0.05037 0.1 0.658988 0.031929 0.1 0.663288 0.059906 0.1 
0.658988 0.031929 0 0.663288 0.059906 0 0.68708 0.05037 0 
0.690712 -0.004949 0.1 0.717644 0.011836 0.1 0.714957 -0.013428 0.1 
0.717644 0.011836 0 0.714957 -0.013428 0 0.690712 -0.004949 0 
0.67974 -0.1444 0.1 0.643871 -0.154163 0.1 0.650445 -0.125842 0.1 
0.643871 -0.154163 0 0.650445 -0.125842 0 0.67974 -0.1444 0 
0.801645 0.056026 0.1 0.780151 0.034517 0.1 0.773291 0.062316 0.1 
0.780151 0.034517 0 0.773291 0.062316 0 0.801645 0.056026 0 
0.793922 0.123429 0.1 0.816372 0.149963 0.1 0.822428 0.115949 0.1 
0.822428 0.115949 0 0.816372 0.149963 0 0.793922 0.123429 0 
0.678936 0.13565 0.1 0.658895 0.112633 0.1 0.653773 0.139801 0.1 
0.658895 0.112633 0 0.653773 0.139801 0 0.678936 0.13565 0 
0.855142 -0.023388 0.1 0.829597 -0.042747 0.1 0.830344 -0.007972 0.1 
0.829597 -0.042747 0 0.830344 -0.007972 0 0.855142 -0.023388 0 
0.688738 0.022507 0.1 0.664296 0.004551 0.1 0.664296 0.004551 0 
0.688738 0.022507 0 0.668626 0.167949 0.1 0.690672 0.188086 0.1 
0.701017 0.162157 0.1 0.701017 0.162157 0 0.690672 0.188086 0 
0.668626 0.167949 0 0.715981 0.042309 0.1 0.715981 0.042309 0 
0.712876 0.071611 0.1 0.712876 0.071611 0 0.806792 0.018758 0.1 
0.806792 0.018758 0 0.665201 0.204718 0.1 0.642641 0.184761 0.1 
0.634371 0.211859 0.1 0.642641 0.184761 0 0.634371 0.211859 0 
0.665201 0.204718 0 0.78244 0.160702 0.1 0.78244 0.160702 0 
0.644971 0.161371 0.1 0.644971 0.161371 0 0.639486 0.260867 0.1 
0.624317 0.237468 0.1 0.614077 0.261969 0.1 0.624317 0.237468 0 
0.614077 0.261969 0 0.639486 0.260867 0 0.685906 0.078314 0.1 
0.709909 0.10069 0.1 0.709909 0.10069 0 0.685906 0.078314 0 
0.628457 0.286062 0.1 0.603255 0.285963 0.1 0.603255 0.285963 0 
0.628457 0.286062 0 0.75894 0.249469 0.1 0.781343 0.277629 0.1 
0.793264 0.243142 0.1 0.793264 0.243142 0 0.781343 0.277629 0 
0.75894 0.249469 0 0.61667 0.310599 0.1 0.61667 0.310599 0 
0.719001 0.193685 0.1 0.744141 0.218373 0.1 0.753432 0.182035 0.1 
0.753432 0.182035 0 0.744141 0.218373 0 0.719001 0.193685 0 
0.603983 0.334598 0.1 0.591551 0.309457 0.1 0.591551 0.309457 0 
0.603983 0.334598 0 0.651223 0.234985 0.1 0.667306 0.261835 0.1 
0.680067 0.234986 0.1 0.680067 0.234986 0 0.667306 0.261835 0 
0.651223 0.234985 0 0.590373 0.358065 0.1 0.57894 0.332456 0.1 
0.57894 0.332456 0 0.590373 0.358065 0 0.643555 0.313592 0.1 
0.655562 0.287981 0.1 0.655562 0.287981 0 0.643555 0.313592 0 
[...]
POINT_DATA 19694
FIELD FieldData 3
Rho 1 19694 float
17.8756 17.888 17.8976 17.8879 17.8975 17.8756 17.8911 17.8959 17.8853 
17.8852 17.8959 17.891 17.8368 17.8341 17.8248 17.8247 17.8342 17.8366 
17.9204 17.9285 17.9186 17.9186 17.9284 17.9205 17.911 17.9044 17.9158 
17.9159 17.9042 17.9109 17.9004 17.9066 17.9066 17.9003 17.8787 17.8569 
17.866 17.866 17.857 17.8786 18.0811 18.0819 18.0934 18.0819 18.0933 
18.0812 17.9933 17.9957 17.9868 17.9868 17.9957 17.9934 17.9536 17.9657 
17.966 17.9657 17.966 17.9535 18.0541 18.0596 18.0663 18.0596 18.0662 
18.0541 17.9275 17.9162 17.934 17.9161 17.934 17.9273 17.9314 17.9184 
17.9399 17.9399 17.9187 17.9314 17.9851 17.9672 17.9795 17.9794 17.9671 
17.9851 17.9676 17.9567 17.9567 17.9676 17.8586 17.8442 17.8584 17.8443 
17.8586 17.8584 18.0075 18.0015 17.9954 17.9954 18.0015 18.0075 17.9469 
17.9518 17.952 17.9472 17.9652 17.9654 17.8482 17.8457 17.8295 17.8457 
17.8294 17.8483 17.7842 17.7613 17.7727 17.7728 17.7615 17.784 18.2256 
18.2411 18.2299 18.2409 18.2297 18.2255 17.8865 17.8864 18.2597 18.2738 
18.273 18.2737 18.2728 18.2598 18.2131 18.2199 18.23 18.2198 18.23 
18.2131 18.0966 18.0923 18.1111 18.0923 18.1111 18.0965 18.1039 18.1014 
18.1179 18.1015 18.1179 18.104 18.1854 18.1931 18.2016 18.1931 18.2014 
18.1855 17.9447 17.9288 17.9507 17.9289 17.9508 17.9446 17.7964 17.7758 
17.7949 17.7759 17.795 17.7962 17.7226 17.7359 17.7407 17.7359 17.7409 
17.7225 17.8618 17.8426 17.8612 17.8428 17.8615 17.8618 17.6796 17.6576 
17.6688 17.6577 17.6689 17.6792 17.7949 17.8107 17.8016 17.8017 17.8109 
17.795 17.6145 17.5953 17.6145 17.6147 17.5956 17.6145 17.7434 17.7234 
17.7374 17.7233 17.7375 17.7432 17.7778 17.7725 17.793 17.7725 17.7927 
17.7776 17.6923 17.6921 17.7655 17.7536 17.7536 17.7655 17.7298 17.7431 
17.7434 17.7299 17.673 17.6555 17.6731 17.6733 17.6557 17.6731 17.6879 
17.6945 17.6771 17.6772 17.6945 17.6878 17.5758 17.5795 17.5762 17.5799 
17.5785 17.5954 17.5957 17.5789 17.5644 17.5642 17.5601 17.5599 17.5612 
17.5501 17.5493 17.5613 17.4893 17.5149 17.507 17.5063 17.5149 17.4896 
17.6833 17.6968 17.6803 17.6803 17.6967 17.6834 17.4924 17.4917 17.4972 
17.4914 17.497 17.4925 17.5703 17.5506 17.5638 17.5507 17.5638 17.57 
17.7078 17.7015 17.718 17.7018 17.718 17.7078 18.1401 18.1444 18.1546 
18.1443 18.1545 18.1403 17.8157 17.8135 17.8293 17.8134 17.8291 17.8159 
17.757 17.7434 17.7419 17.7421 17.7436 17.7566 17.8572 17.8438 17.8439 
17.8572 17.8076 17.8277 17.8192 17.8278 17.8189 17.8076 17.7719 17.7595 
17.757 17.7571 17.7596 17.7717 17.7809 17.7893 17.7893 17.7807 17.8589 
17.843 17.86 17.8432 17.8601 17.8588 17.8422 17.8541 17.8541 17.8422 
17.7832 17.7892 17.7726 17.7726 17.7892 17.783 17.5853 17.5887 17.5824 
17.591 17.5833 17.5862 17.8802 17.869 17.8831 17.8691 17.8832 17.8801 
17.8068 17.8139 17.7973 17.7973 17.8139 17.8067 17.7637 17.7718 17.7799 
17.7718 17.7801 17.7637 17.6026 17.6096 17.5985 17.6096 17.5985 17.6027 
17.5686 17.5748 17.5668 17.575 17.5669 17.5683 17.584 17.5777 17.5852 
17.5777 17.5852 17.584 17.621 17.6242 17.6178 17.6243 17.6178 17.6212 
17.558 17.5666 17.5588 17.5665 17.5587 17.5578 17.5394 17.5293 17.5378 
17.5378 17.5293 17.5391 17.5471 17.5532 17.5471 17.5533 17.5472 17.5468 
17.5793 17.5872 17.5758 17.5873 17.5759 17.5793 17.5763 17.5824 17.5825 
17.5762 17.5407 17.5352 17.5394 17.5395 17.5353 17.5406 17.5691 17.569 
17.5609 17.561 17.5692 17.5692 17.5341 17.5386 17.5344 17.5385 17.5346 
17.5341 17.5313 17.5312 17.5428 17.543 17.5283 17.5311 17.5287 17.5314 
17.5289 17.528 17.5609 17.5533 17.5534 17.5608 17.5264 17.5268 17.5271 
17.5264 17.5173 17.5094 17.5128 17.5128 17.5098 17.517 17.5251 17.5252 
17.5319 17.5241 17.5299 17.5301 17.5245 17.5315 17.5242 17.5254 17.5257 
17.5244 17.5306 17.5261 17.5287 17.5287 17.5264 17.5306 17.5236 17.5243 
17.5246 17.5238 17.5234 17.5244 17.5247 17.5236 17.5231 17.5233 17.5237 
17.5233 17.5228 17.5231 17.5226 17.5224 17.5228 17.5228 17.5226 17.5229 
17.5218 17.5214 17.5218 17.522 17.5225 17.5228 17.5206 17.5201 17.5206 
17.5209 17.5224 17.5227 17.519 17.5184 17.519 17.5194 17.5221 17.5224 
17.5168 17.5163 17.5169 17.5173 17.5214 17.5218 17.5141 17.5136 17.5143 
17.5146 17.5203 17.5208 17.5107 17.5103 17.5111 17.5114 17.5187 17.5192 
17.5068 17.5065 17.5074 17.5075 17.5164 17.517 17.5023 17.502 17.503 
17.5031 17.5136 17.5142 17.4975 17.4971 17.4981 17.4983 17.5103 17.5109 
17.4922 17.4916 17.4927 17.493 17.5065 17.5071 17.4866 17.4858 17.4868 
17.4874 17.5023 17.5028 17.4807 17.4796 17.4804 17.4814 17.4978 17.4982 
17.4748 17.4731 17.4738 17.4754 17.493 17.4934 17.4688 17.4663 17.4668 
17.4693 17.4881 17.4884 17.463 17.4595 17.4598 17.4633 17.4833 17.4833 
17.4575 17.4528 17.4527 17.4577 17.4785 17.4784 17.4525 17.4462 17.4459 
17.4525 17.474 17.4737 17.4482 17.4401 17.4394 17.448 17.4698 17.4694 
17.4447 17.4346 17.4336 17.4443 17.4662 17.4657 17.4423 17.4299 17.4286 
17.4417 17.4634 17.4627 17.4412 17.4263 17.4246 17.4403 17.4613 17.4606 
17.4415 17.4239 17.422 17.4404 17.4603 17.4595 17.4433 17.423 17.4209 
17.4421 17.4605 17.4596 17.4469 17.4237 17.4215 17.4455 17.4621 17.4611 
17.4524 17.4263 17.424 17.4508 17.465 17.4641 17.4599 17.431 17.4285 
17.4581 17.4696 17.4687 17.4694 17.4378 17.4353 17.4675 17.4759 17.4749 
17.4811 17.4469 17.4444 17.4791 17.4839 17.483 17.495 17.4583 17.4558 
17.4929 17.4939 17.493 17.5111 17.4721 17.4698 17.509 17.5057 17.5049 
17.5294 17.4884 17.4862 17.5273 17.5196 17.5188 17.5499 17.5072 17.505 
17.5478 17.5354 17.5347 17.5726 17.5284 17.5263 17.5705 17.5533 17.5526 
17.5973 17.5519 17.55 17.5952 17.5731 17.5725 17.624 17.5777 17.576 
17.622 17.5949 17.5943 17.6526 17.6057 17.6042 17.6507 17.6185 17.618 
17.6829 17.6357 17.6344 17.6811 17.644 17.6436 17.7148 17.6676 17.6664 
17.7131 17.6712 17.6708 17.748 17.7012 17.7002 17.7464 17.6999 17.6996 
17.7825 17.7362 17.7355 17.781 17.7301 17.7299 17.8179 17.7726 17.772 
17.8166 17.7615 17.7614 17.8541 17.81 17.8096 17.853 17.7941 17.7941 
17.8909 17.8482 17.848 17.89 17.8276 17.8277 17.928 17.887 17.887 
17.9272 17.8618 17.862 17.9653 17.9261 17.9263 17.9646 17.8966 17.8969 
18.0023 17.9653 17.9657 18.0019 17.9317 17.932 18.0391 18.0043 18.0049 
18.0388 17.9669 17.9673 18.0752 18.0429 18.0436 18.0751 18.0021 18.0025 
18.1106 18.0808 18.0816 18.1106 18.0369 18.0374 18.1449 18.1178 18.1188 
18.145 18.0712 18.0718 18.1779 18.1537 18.1548 18.1782 18.1047 18.1054 
18.2095 18.1881 18.1893 18.21 18.1374 18.1381 18.2395 18.221 18.2223 
18.2401 18.1689 18.1697 18.2677 18.2521 18.2535 18.2684 18.1991 18.1999 
18.2939 18.2812 18.2827 18.2947 18.2278 18.2287 18.318 18.3082 18.3098 
18.3189 18.2549 18.2558 18.3398 18.3329 18.3345 18.3408 18.2802 18.2811 
18.3593 18.3551 18.3567 18.3603 18.3035 18.3044 18.3762 18.3747 18.3764 
18.3773 18.3247 18.3256 18.3905 18.3916 18.3933 18.3917 18.3437 18.3446 
18.4022 18.4057 18.4075 18.4035 18.3604 18.3613 18.4112 18.417 18.4188 
18.4125 18.3747 18.3756 18.4174 18.4254 18.4272 18.4187 18.3865 18.3874 
18.4208 18.4308 18.4326 18.4221 18.3958 18.3967 18.4214 18.4332 18.435 
18.4227 18.4026 18.4034 18.4192 18.4326 18.4344 18.4205 18.4067 18.4075 
18.4143 18.4291 18.4309 18.4156 18.4082 18.409 18.4067 18.4227 18.4244 
18.4079 18.4071 18.4079 18.3963 18.4134 18.4151 18.3975 18.4034 18.4041 
18.3835 18.4013 18.4029 18.3846 18.3971 18.3978 18.3681 18.3865 18.3881 
18.3691 18.3883 18.389 18.3503 18.369 18.3706 18.3513 18.3771 18.3778 
18.3303 18.3491 18.3506 18.3312 18.3635 18.3641 18.3082 18.3269 18.3283 
18.309 18.3476 18.3482 18.2841 18.3025 18.3038 18.2848 18.3296 18.3302 
18.2582 18.2761 18.2773 18.2588 18.3095 18.3101 18.2306 18.2478 18.249 
18.2311 18.2876 18.2881 18.2017 18.2179 18.219 18.2021 18.2639 18.2643 
18.2385 18.2389 18.2118 18.2121 17.5921 17.5893 17.5974 17.5976 17.5895 
17.5924 17.5821 17.5759 17.5849 17.585 17.5759 17.5821 17.6147 17.6211 
17.6212 17.6148 17.6059 17.6122 17.6022 17.6022 17.6121 17.6058 17.5911 
17.5926 17.5927 17.5911 17.5522 17.552 17.8706 17.8708 17.7581 17.758 
17.8114 17.7965 17.7966 17.8114 17.7514 17.7517 17.8086 17.8268 17.8269 
17.8084 17.7827 17.7828 17.7453 17.7293 17.7292 17.745 17.7865 17.7865 
17.8791 17.8611 17.8611 17.8791 17.7792 17.79 17.7967 17.7966 17.7895 
17.779 17.8054 17.7853 17.7853 17.805 17.7782 17.7687 17.7599 17.7601 
17.7686 17.778 17.813 17.8011 17.8013 17.813 17.8772 17.8773 17.8982 
17.9134 17.895 17.895 17.9135 17.898 17.8229 17.8231 17.8681 17.8485 
17.8695 17.8486 17.8697 17.868 17.8486 17.8301 17.8304 17.8487 17.9446 
17.9424 17.9262 17.9264 17.9422 17.9444 17.9573 17.9694 17.9505 17.9506 
17.9694 17.957 17.909 17.909 17.9771 17.988 17.988 17.9771 17.8785 
17.8995 17.8802 17.8802 17.8997 17.8784 17.9222 17.9065 17.9066 17.9221 
18.0118 18.0056 17.9935 17.9936 18.0055 18.0116 17.9967 18.0065 18.0065 
17.9969 17.962 17.9621 18.0358 18.0424 18.0248 18.0248 18.0424 18.0358 
17.963 17.9855 17.9855 17.9631 18.0165 18.0164 18.1057 18.0898 18.0901 
18.1057 18.0636 18.0798 18.071 18.0712 18.0794 18.0634 18.0265 18.048 
18.048 18.0267 18.0821 18.0669 18.0736 18.0736 18.0667 18.082 18.0144 
18.0145 18.0755 18.0599 18.06 18.0758 18.0919 18.0764 18.0763 18.0918 
18.1211 18.1205 18.1066 18.1065 18.1203 18.1211 18.0409 18.0408 18.1628 
18.1632 18.1784 18.1632 18.1784 18.1629 18.1516 18.1473 18.1473 18.1513 
18.1484 18.133 18.1329 18.1486 18.178 18.1696 18.1699 18.1781 18.1855 
18.198 18.1839 18.1842 18.1977 18.1853 18.1325 18.1373 18.1199 18.1198 
18.1374 18.1323 18.2072 18.1953 18.2079 18.2078 18.1951 18.207 18.1065 
18.1066 18.18 18.1685 18.1685 18.1802 18.1632 18.163 18.1852 18.1765 
18.1705 18.1704 18.1763 18.1854 18.1669 18.167 18.2466 18.2572 18.2622 
18.2571 18.2621 18.2467 18.2449 18.2501 18.2499 18.2445 18.2229 18.2086 
18.2207 18.2206 18.2087 18.2227 18.1968 18.1851 18.1837 18.1836 18.185 
18.1971 18.1627 18.1629 18.1975 18.1849 18.1848 18.1975 18.2085 18.2025 
18.1935 18.1934 18.2025 18.2083 18.2058 18.2182 18.2182 18.2058 18.2203 
18.2079 18.2227 18.2225 18.2081 18.2201 18.1964 18.1833 18.1831 18.1964 
18.1731 18.1733 18.1896 18.1756 18.1801 18.18 18.1754 18.1897 18.2124 
18.2102 18.2104 18.2124 18.1937 18.194 18.2305 18.2269 18.2178 18.2179 
18.2267 18.2304 18.2065 18.1994 18.1997 18.2065 18.237 18.2407 18.2495 
18.2492 18.2405 18.2367 18.1708 18.1709 18.205 18.2094 18.2093 18.2052 
18.2154 18.2153 17.8295 17.8302 17.8302 17.8295 17.7885 17.7885 17.8755 
17.8683 17.8683 17.8755 17.7352 17.7355 17.6603 17.6665 17.6665 17.6604 
17.7016 17.7076 17.7079 17.7011 17.6619 17.6621 17.7334 17.7334 17.6952 
17.7054 17.6847 17.6847 17.7053 17.6953 17.7358 17.7468 17.7469 17.7357 
17.7248 17.7249 17.5703 17.5739 17.5591 17.5737 17.5585 17.57 17.6198 
17.6479 17.6302 17.648 17.6302 17.6197 17.9631 17.9598 17.951 17.9511 
17.9602 17.9632 17.4994 17.5 17.6696 17.6835 17.6935 17.6838 17.6935 
17.6694 17.7436 17.7465 17.7466 17.7437 17.6698 17.6697 17.6926 17.6738 
17.6819 17.6739 17.6819 17.6926 17.8995 17.8994 17.592 17.6182 17.6227 
17.6181 17.6226 17.5916 17.4784 17.4807 17.4859 17.4806 17.4859 17.4784 
17.5442 17.5343 17.5424 17.5338 17.5417 17.5439 17.6314 17.6515 17.6521 
17.6519 17.6518 17.6311 17.4956 17.4727 17.4853 17.4724 17.4851 17.4972 
17.5575 17.5574 17.463 17.4697 17.4688 17.4699 17.4687 17.4629 17.6719 
17.6507 17.6509 17.6714 17.4991 17.5254 17.5247 17.4992 17.5542 17.5884 
17.5871 17.5879 17.5875 17.5547 17.5081 17.5286 17.5143 17.5286 17.5145 
17.5079 17.5221 17.5275 17.4962 17.4957 17.5279 17.5225 17.4737 17.4778 
17.4665 17.4775 17.4659 17.4739 17.5242 17.6203 17.5967 17.6087 17.5964 
17.6092 17.6207 17.4572 17.4439 17.451 17.4434 17.4512 17.4574 17.5453 
17.5451 17.7736 17.7729 17.7979 17.7729 17.7981 17.7738 17.8107 17.798 
17.7881 17.7882 17.7982 17.8106 17.7133 17.7205 17.7364 17.7209 17.7365 
17.713 17.435 17.4374 17.4348 17.4347 17.4377 17.4352 17.4601 17.4622 
17.462 17.4606 17.6619 17.6572 17.6281 17.6573 17.6282 17.6622 17.9578 
17.9495 17.9471 17.9496 17.9471 17.9578 17.6542 17.6728 17.691 17.6914 
17.6735 17.654 17.9403 17.9456 17.9457 17.9405 17.5523 17.5887 17.5889 
17.5524 17.9289 17.9289 17.441 17.4428 17.438 17.4378 17.7431 17.7205 
17.7227 17.7229 17.7205 17.7431 17.7511 17.751 17.8198 17.8397 17.8396 
17.8197 17.7905 17.7792 17.7793 17.7905 17.8075 17.8173 17.8035 17.8034 
17.8173 17.8075 17.852 17.8668 17.8668 17.8519 17.8728 17.8586 17.8585 
17.8728 17.8443 17.8445 17.7709 17.7834 17.7834 17.7708 17.8891 17.8893 
18.141 18.1523 18.1498 18.1522 18.1497 18.1412 17.9841 17.978 17.9737 
17.978 17.9737 17.9841 18.1391 18.1503 18.1512 18.1502 18.1512 18.1393 
18.1295 18.1375 18.1426 18.1374 18.1425 18.1296 17.9025 17.9211 17.913 
17.913 17.9211 17.9025 18.0902 18.104 18.0994 18.0994 18.1042 18.0903 
17.9685 17.9685 18.0652 18.0567 18.0704 18.0567 18.0704 18.0652 18.0649 
18.0706 18.0786 18.0706 18.0787 18.0649 18.0082 18.0124 18.0144 18.0124 
18.0144 18.0081 18.0094 17.9977 18.0099 18.0099 17.9978 18.0093 18.0932 
18.0819 18.0819 18.093 18.0441 18.0442 18.0474 18.0431 18.0359 18.0359 
18.043 18.0474 18.0541 18.0542 18.079 18.0733 18.0735 18.079 18.0579 
18.0541 18.0541 18.0578 18.0684 18.1013 18.1157 18.1163 18.1162 18.1156 
18.1013 17.7886 17.7817 17.7819 17.7883 17.7586 17.7586 17.8609 17.861 
17.583 17.5831 17.8464 17.8464 17.9091 17.8884 17.908 17.908 17.8886 
17.909 17.9261 17.9261 17.8926 17.8926 17.8966 17.9076 17.9076 17.8966 
17.8878 17.9005 17.8946 17.8879 17.9252 17.9251 17.908 17.9009 17.901 
17.908 17.8546 17.8731 17.8731 17.8544 17.8608 17.861 17.834 17.8173 
17.8183 17.8171 17.8182 17.8339 17.8177 17.8305 17.8178 17.8306 17.8479 
17.848 18.2522 18.268 18.2617 18.2679 18.2615 18.2522 18.2467 18.2457 
18.234 18.2341 18.2455 18.2465 18.2596 18.2592 18.2715 18.2713 18.2591 
18.2595 18.245 18.2487 18.2343 18.2344 18.2485 18.2448 18.2627 18.2581 
18.272 18.2719 18.258 18.2627 18.0636 18.0597 18.0597 18.0637 18.1909 
18.1808 18.1807 18.1909 18.0231 18.0122 18.0333 18.0123 18.0334 18.0231 
18.1766 18.1832 18.1834 18.1766 17.9903 18.0086 18.0005 18.0007 18.0085 
17.9902 18.0052 17.9899 17.9921 17.9923 17.99 18.0053 17.9156 17.9333 
17.9294 17.9296 17.9332 17.9155 17.9253 17.9111 17.9089 17.9091 17.9112 
17.9254 18.0936 18.0857 18.0859 18.0938 18.0547 18.0548 18.1839 18.184 
17.7374 17.7151 17.7312 17.7152 17.7314 17.7372 17.9174 17.9318 17.9319 
17.9177 17.7268 17.7375 17.7447 17.7448 17.7374 17.7268 17.7211 17.7142 
17.7022 17.7025 17.7143 17.7211 17.749 17.7589 17.7591 17.749 17.7377 
17.7376 17.6242 17.6058 17.6128 17.6061 17.613 17.6242 17.6471 17.6346 
17.6481 17.6346 17.648 17.6471 17.7406 17.7244 17.7245 17.7406 17.7035 
17.6836 17.7025 17.7025 17.6835 17.7034 17.6915 17.7188 17.7191 17.6915 
17.6676 17.6674 17.6871 17.6857 17.6856 17.6871 17.6665 17.6663 17.6717 
17.6535 17.6536 17.6715 17.6288 17.6408 17.646 17.6408 17.6458 17.6289 
17.6353 17.6353 17.6433 17.6436 17.6272 17.6107 17.6164 17.6166 17.6107 
17.6273 17.5988 17.5991 17.6307 17.6309 18.1986 18.1989 18.1602 18.1601 
17.6672 17.6671 17.829 17.8288 17.8157 17.8148 17.8147 17.8158 17.7628 
17.7459 17.7461 17.7628 17.8511 17.8469 17.8595 17.8595 17.8467 17.8514 
17.7686 17.7688 17.8167 17.828 17.8281 17.8166 17.8253 17.8253 17.5998 
17.6044 17.597 17.5988 17.6062 17.6005 17.5824 17.5868 17.5797 17.58 
17.5871 17.5825 17.5906 17.5906 17.5784 17.5783 17.581 17.5776 17.584 
17.5849 17.5777 17.5816 17.5466 17.5592 17.5465 17.5591 17.5466 17.5465 
17.5623 17.5582 17.5645 17.5645 17.5581 17.5623 17.5806 17.581 17.5331 
17.5352 17.5353 17.5331 17.5712 17.5748 17.5753 17.5707 17.5675 17.564 
17.5706 17.5705 17.5637 17.5671 17.5221 17.5252 17.5253 17.5221 17.564 
17.5672 17.5674 17.5634 17.5543 17.5515 17.5574 17.5572 17.5511 17.5539 
17.5126 17.5166 17.5167 17.5126 17.5572 17.5599 17.5598 17.5563 17.5607 
17.56 17.5047 17.5095 17.5096 17.5047 17.5296 17.5296 17.5448 17.5481 
17.5508 17.5498 17.5477 17.5436 17.5426 17.5457 17.5455 17.5422 17.4985 
17.5038 17.504 17.4985 17.5181 17.5182 17.5394 17.5381 17.5376 17.5406 
17.5404 17.5372 17.494 17.4999 17.5 17.4941 17.5078 17.5079 17.5345 
17.5332 17.5331 17.536 17.5359 17.5328 17.4913 17.4974 17.4976 17.4914 
17.4989 17.4989 17.5301 17.5288 17.5292 17.532 17.5319 17.5289 17.4901 
17.4964 17.4966 17.4902 17.4919 17.492 17.5263 17.5251 17.5257 17.5284 
17.5284 17.5256 17.4903 17.4966 17.4968 17.4904 17.487 17.4872 17.5229 
17.5219 17.5227 17.5253 17.5253 17.5226 17.4916 17.4979 17.498 17.4917 
17.4841 17.4842 17.52 17.5191 17.5199 17.5226 17.5226 17.52 17.4938 
17.4999 17.5 17.4939 17.4827 17.4829 17.5174 17.5167 17.5174 17.52 
17.5201 17.5176 17.4966 17.5023 17.5024 17.4967 17.4829 17.483 17.5149 
17.5144 17.5151 17.5177 17.5178 17.5154 17.4997 17.5049 17.5051 17.4998 
17.4843 17.4844 17.5126 17.5123 17.5127 17.5155 17.5156 17.5131 17.5029 
17.5076 17.5077 17.503 17.4868 17.4869 17.5101 17.51 17.5101 17.5131 
17.5133 17.5107 17.506 17.51 17.5101 17.5061 17.49 17.4901 17.5075 
17.5075 17.5073 17.5105 17.5108 17.5081 17.509 17.5122 17.5123 17.5091 
17.4936 17.4937 17.5045 17.5047 17.5042 17.5076 17.508 17.505 17.5117 
17.5142 17.5141 17.5118 17.4975 17.4975 17.5011 17.5013 17.5005 17.5043 
17.5048 17.5014 17.5144 17.5159 17.5157 17.5144 17.5014 17.5013 17.497 
17.4973 17.4962 17.5005 17.501 17.4973 17.517 17.5175 17.5172 17.5169 
17.5053 17.5051 17.4923 17.4926 17.4914 17.4961 17.4967 17.4925 17.5197 
17.519 17.5186 17.5195 17.5092 17.5088 17.4869 17.4871 17.4858 17.4911 
17.4918 17.487 17.5224 17.5206 17.5201 17.5223 17.5131 17.5125 17.4807 
17.4808 17.4795 17.4854 17.4861 17.4807 17.5253 17.5223 17.5218 17.5252 
17.517 17.5163 17.4738 17.4738 17.4725 17.479 17.4798 17.4738 17.5284 
17.5242 17.5236 17.5284 17.5211 17.5203 17.4662 17.4659 17.4649 17.472 
17.4728 17.4661 17.5319 17.5264 17.5258 17.5318 17.5253 17.5244 17.4578 
17.4573 17.4565 17.4642 17.4652 17.4578 17.5357 17.5289 17.5283 17.5355 
17.5296 17.5289 17.4487 17.4479 17.4475 17.4559 17.4568 17.4487 17.5396 
17.5316 17.5311 17.5395 17.5342 17.5336 17.4389 17.4378 17.4379 17.4469 
17.4479 17.439 17.544 17.5348 17.5343 17.5437 17.5389 17.5384 17.4286 
17.4272 17.4277 17.4374 17.4383 17.4287 17.5484 17.5382 17.5379 17.5482 
17.5439 17.5435 17.4177 17.4159 17.4171 17.4273 17.4282 17.4179 17.5532 
17.5421 17.5418 17.553 17.549 17.5486 17.4065 17.4043 17.4062 17.4169 
17.4176 17.4067 17.5583 17.5463 17.5462 17.5581 17.5542 17.554 17.395 
17.3923 17.395 17.4061 17.4067 17.3952 17.5638 17.5511 17.551 17.5636 
17.5594 17.5592 17.3833 17.3801 17.3837 17.3952 17.3956 17.3836 17.5697 
17.5563 17.5563 17.5695 17.5648 17.5647 17.3717 17.3679 17.3726 17.3843 
17.3845 17.372 17.5761 17.5622 17.5622 17.5759 17.5705 17.5706 17.3604 
17.3561 17.3618 17.3736 17.3736 17.3608 17.583 17.5687 17.5688 17.5828 
17.5766 17.5767 17.3496 17.3447 17.3517 17.3635 17.3632 17.3502 17.5906 
17.5759 17.576 17.5903 17.5829 17.5831 17.3395 17.3341 17.3424 17.3541 
17.3534 17.3404 17.5988 17.5839 17.584 17.5985 17.5898 17.59 17.3306 
17.3246 17.3344 17.3457 17.3447 17.3318 17.6079 17.5927 17.5928 17.6075 
17.5971 17.5973 17.323 17.3165 17.3278 17.3387 17.3373 17.3246 17.6177 
17.6025 17.6026 17.6173 17.6048 17.605 17.3171 17.3102 17.323 17.3334 
17.3315 17.3193 17.6284 17.6132 17.6133 17.628 17.6133 17.6134 17.3132 
17.3059 17.3204 17.3301 17.3278 17.3161 17.64 17.625 17.6251 17.6396 
17.6225 17.6226 17.3116 17.304 17.3202 17.3291 17.3263 17.3153 17.6526 
17.6378 17.6379 17.6522 17.6324 17.6326 17.3127 17.3048 17.3227 17.3306 
17.3274 17.3174 17.6662 17.6517 17.6518 17.6657 17.6431 17.6433 17.3166 
17.3085 17.3282 17.335 17.3314 17.3224 17.6808 17.6667 17.6669 17.6804 
17.6546 17.6548 17.3235 17.3155 17.3368 17.3425 17.3385 17.3306 17.6965 
17.6829 17.683 17.696 17.6668 17.667 17.3338 17.3258 17.3487 17.3532 
17.3488 17.3423 17.7131 17.7001 17.7003 17.7126 17.6801 17.6803 17.3475 
17.3397 17.3641 17.3672 17.3626 17.3575 17.7308 17.7184 17.7186 17.7303 
17.6944 17.6946 17.3647 17.3572 17.383 17.3847 17.3799 17.3762 17.7494 
17.7378 17.738 17.7489 17.7095 17.7098 17.3854 17.3784 17.4054 17.4057 
17.4007 17.3986 17.769 17.7582 17.7584 17.7685 17.7255 17.7258 17.4098 