# vtk DataFile Version 1.0
Flow analysis of Office Environment (Dr. Ludwig Besse ETH)

ASCII

DATASET STRUCTURED_GRID
DIMENSIONS 21 20 20
POINTS 8400 float
  0.0099999988 0.0099999988 0.0099999988
  0.050000001 0.0099999988 0.0099999988
  0.1 0.0099999988 0.0099999988
  0.25 0.0099999988 0.0099999988
  0.40000001 0.0099999988 0.0099999988
  0.69999999 0.0099999988 0.0099999988
  1.05 0.0099999988 0.0099999988
  1.4 0.0099999988 0.0099999988
  1.7 0.0099999988 0.0099999988
  2.0999999 0.0099999988 0.0099999988
  2.5 0.0099999988 0.0099999988
  2.8 0.0099999988 0.0099999988
  3.0999999 0.0099999988 0.0099999988
  3.5 0.0099999988 0.0099999988
  3.8 0.0099999988 0.0099999988
  4.0999999 0.0099999988 0.0099999988
  4.25 0.0099999988 0.0099999988
  4.4000001 0.0099999988 0.0099999988
  4.4499998 0.0099999988 0.0099999988
  4.4899998 0.0099999988 0.0099999988
  4.5 0.0099999988 0.0099999988
  0.0099999988 0.050000001 0.0099999988
  0.050000001 0.050000001 0.0099999988
  0.1 0.050000001 0.0099999988
  0.25 0.050000001 0.0099999988
  0.40000001 0.050000001 0.0099999988
  0.69999999 0.050000001 0.0099999988
  1.05 0.050000001 0.0099999988
  1.4 0.050000001 0.0099999988
  1.7 0.050000001 0.0099999988
  2.0999999 0.050000001 0.0099999988
  2.5 0.050000001 0.0099999988
  2.8 0.050000001 0.0099999988
  3.0999999 0.050000001 0.0099999988
  3.5 0.050000001 0.0099999988
  3.8 0.050000001 0.0099999988
  4.0999999 0.050000001 0.0099999988
  4.25 0.050000001 0.0099999988
  4.4000001 0.050000001 0.0099999988
  4.4499998 0.050000001 0.0099999988
  4.4899998 0.050000001 0.0099999988
  4.5 0.050000001 0.0099999988
  0.0099999988 0.1 0.0099999988
  0.050000001 0.1 0.0099999988
  0.1 0.1 0.0099999988
  0.25 0.1 0.0099999988
  0.40000001 0.1 0.0099999988
  0.69999999 0.1 0.0099999988
  1.05 0.1 0.0099999988
  1.4 0.1 0.0099999988
  1.7 0.1 0.0099999988
  2.0999999 0.1 0.0099999988
  2.5 0.1 0.0099999988
  2.8 0.1 0.0099999988
  3.0999999 0.1 0.0099999988
  3.5 0.1 0.0099999988
  3.8 0.1 0.0099999988
  4.0999999 0.1 0.0099999988
  4.25 0.1 0.0099999988
  4.4000001 0.1 0.0099999988
  4.4499998 0.1 0.0099999988
  4.4899998 0.1 0.0099999988
  4.5 0.1 0.0099999988
  0.0099999988 0.25 0.0099999988
  0.050000001 0.25 0.0099999988
  0.1 0.25 0.0099999988
  0.25 0.25 0.0099999988
  0.40000001 0.25 0.0099999988
  0.69999999 0.25 0.0099999988
  1.05 0.25 0.0099999988
  1.4 0.25 0.0099999988
  1.7 0.25 0.0099999988
  2.0999999 0.25 0.0099999988
  2.5 0.25 0.0099999988
  2.8 0.25 0.0099999988
  3.0999999 0.25 0.0099999988
  3.5 0.25 0.0099999988
  3.8 0.25 0.0099999988
  4.0999999 0.25 0.0099999988
  4.25 0.25 0.0099999988
  4.4000001 0.25 0.0099999988
  4.4499998 0.25 0.0099999988
  4.4899998 0.25 0.0099999988
  4.5 0.25 0.0099999988
  0.0099999988 0.40000001 0.0099999988
  0.050000001 0.40000001 0.0099999988
  0.1 0.40000001 0.0099999988
  0.25 0.40000001 0.0099999988
  0.40000001 0.40000001 0.0099999988
  0.69999999 0.40000001 0.0099999988
  1.05 0.40000001 0.0099999988
  1.4 0.40000001 0.0099999988
  1.7 0.40000001 0.0099999988
  2.0999999 0.40000001 0.0099999988
  2.5 0.40000001 0.0099999988
  2.8 0.40000001 0.0099999988
  3.0999999 0.40000001 0.0099999988
  3.5 0.40000001 0.0099999988
  3.8 0.40000001 0.0099999988
  4.0999999 0.40000001 0.0099999988
  4.25 0.40000001 0.0099999988
  4.4000001 0.40000001 0.0099999988
  4.4499998 0.40000001 0.0099999988
  4.4899998 0.40000001 0.0099999988
  4.5 0.40000001 0.0099999988
  0.0099999988 0.80000001 0.0099999988
  0.050000001 0.80000001 0.0099999988
  0.1 0.80000001 0.0099999988
  0.25 0.80000001 0.0099999988
  0.40000001 0.80000001 0.0099999988
  0.69999999 0.80000001 0.0099999988
  1.05 0.80000001 0.0099999988
  1.4 0.80000001 0.0099999988
  1.7 0.80000001 0.0099999988
  2.0999999 0.80000001 0.0099999988
  2.5 0.80000001 0.0099999988
  2.8 0.80000001 0.0099999988
  3.0999999 0.80000001 0.0099999988
  3.5 0.80000001 0.0099999988
  3.8 0.80000001 0.0099999988
  4.0999999 0.80000001 0.0099999988
  4.25 0.80000001 0.0099999988
  4.4000001 0.80000001 0.0099999988
  4.4499998 0.80000001 0.0099999988
  4.4899998 0.80000001 0.0099999988
  4.5 0.80000001 0.0099999988
  0.0099999988 1.2 0.0099999988
  0.050000001 1.2 0.0099999988
  0.1 1.2 0.0099999988
  0.25 1.2 0.0099999988
  0.40000001 1.2 0.0099999988
  0.69999999 1.2 0.0099999988
  1.05 1.2 0.0099999988
  1.4 1.2 0.0099999988
  1.7 1.2 0.0099999988
  2.0999999 1.2 0.0099999988
  2.5 1.2 0.0099999988
  2.8 1.2 0.0099999988
  3.0999999 1.2 0.0099999988
  3.5 1.2 0.0099999988
  3.8 1.2 0.0099999988
  4.0999999 1.2 0.0099999988
  4.25 1.2 0.0099999988
  4.4000001 1.2 0.0099999988
  4.4499998 1.2 0.0099999988
  4.4899998 1.2 0.0099999988
  4.5 1.2 0.0099999988
  0.0099999988 1.6 0.0099999988
  0.050000001 1.6 0.0099999988
  0.1 1.6 0.0099999988
  0.25 1.6 0.0099999988
  0.40000001 1.6 0.0099999988
  0.69999999 1.6 0.0099999988
  1.05 1.6 0.0099999988
  1.4 1.6 0.0099999988
  1.7 1.6 0.0099999988
  2.0999999 1.6 0.0099999988
  2.5 1.6 0.0099999988
  2.8 1.6 0.0099999988
  3.0999999 1.6 0.0099999988
  3.5 1.6 0.0099999988
  3.8 1.6 0.0099999988
  4.0999999 1.6 0.0099999988
  4.25 1.6 0.0099999988
  4.4000001 1.6 0.0099999988
  4.4499998 1.6 0.0099999988
  4.4899998 1.6 0.0099999988
  4.5 1.6 0.0099999988
  0.0099999988 1.95 0.0099999988
  0.050000001 1.95 0.0099999988
  0.1 1.95 0.0099999988
  0.25 1.95 0.0099999988
  0.40000001 1.95 0.0099999988
  0.69999999 1.95 0.0099999988
  1.05 1.95 0.0099999988
  1.4 1.95 0.0099999988
  1.7 1.95 0.0099999988
  2.0999999 1.95 0.0099999988
  2.5 1.95 0.0099999988
  2.8 1.95 0.0099999988
  3.0999999 1.95 0.0099999988
  3.5 1.95 0.0099999988
  3.8 1.95 0.0099999988
  4.0999999 1.95 0.0099999988
  4.25 1.95 0.0099999988
  4.4000001 1.95 0.0099999988
  4.4499998 1.95 0.0099999988
  4.4899998 1.95 0.0099999988
  4.5 1.95 0.0099999988
  0.0099999988 2.25 0.0099999988
  0.050000001 2.25 0.0099999988
  0.1 2.25 0.0099999988
  0.25 2.25 0.0099999988
  0.40000001 2.25 0.0099999988
  0.69999999 2.25 0.0099999988
  1.05 2.25 0.0099999988
  1.4 2.25 0.0099999988
  1.7 2.25 0.0099999988
  2.0999999 2.25 0.0099999988
  2.5 2.25 0.0099999988
  2.8 2.25 0.0099999988
  3.0999999 2.25 0.0099999988
  3.5 2.25 0.0099999988
  3.8 2.25 0.0099999988
  4.0999999 2.25 0.0099999988
  4.25 2.25 0.0099999988
  4.4000001 2.25 0.0099999988
  4.4499998 2.25 0.0099999988
  4.4899998 2.25 0.0099999988
  4.5 2.25 0.0099999988
  0.0099999988 2.55 0.0099999988
  0.050000001 2.55 0.0099999988
  0.1 2.55 0.0099999988
  0.25 2.55 0.0099999988
  0.40000001 2.55 0.0099999988
  0.69999999 2.55 0.0099999988
  1.05 2.55 0.0099999988
  1.4 2.55 0.0099999988
  1.7 2.55 0.0099999988
  2.0999999 2.55 0.0099999988
  2.5 2.55 0.0099999988
  2.8 2.55 0.0099999988
  3.0999999 2.55 0.0099999988
  3.5 2.55 0.0099999988
  3.8 2.55 0.0099999988
  4.0999999 2.55 0.0099999988
  4.25 2.55 0.0099999988
  4.4000001 2.55 0.0099999988
  4.4499998 2.55 0.0099999988
  4.4899998 2.55 0.0099999988
  4.5 2.55 0.0099999988
  0.0099999988 2.9000001 0.0099999988
  0.050000001 2.9000001 0.0099999988
  0.1 2.9000001 0.0099999988
  0.25 2.9000001 0.0099999988
  0.40000001 2.9000001 0.0099999988
  0.69999999 2.9000001 0.0099999988
  1.05 2.9000001 0.0099999988
  1.4 2.9000001 0.0099999988
  1.7 2.9000001 0.0099999988
  2.0999999 2.9000001 0.0099999988
  2.5 2.9000001 0.0099999988
  2.8 2.9000001 0.0099999988
  3.0999999 2.9000001 0.0099999988
  3.5 2.9000001 0.0099999988
  3.8 2.9000001 0.0099999988
  4.0999999 2.9000001 0.0099999988
  4.25 2.9000001 0.0099999988
  4.4000001 2.9000001 0.0099999988
  4.4499998 2.9000001 0.0099999988
  4.4899998 2.9000001 0.0099999988
  4.5 2.9000001 0.0099999988
  0.0099999988 3.3 0.0099999988
  0.050000001 3.3 0.0099999988
  0.1 3.3 0.0099999988
  0.25 3.3 0.0099999988
  0.40000001 3.3 0.0099999988
  0.69999999 3.3 0.0099999988
  1.05 3.3 0.0099999988
  1.4 3.3 0.0099999988
  1.7 3.3 0.0099999988
  2.0999999 3.3 0.0099999988
  2.5 3.3 0.0099999988
  2.8 3.3 0.0099999988
  3.0999999 3.3 0.0099999988
  3.5 3.3 0.0099999988
  3.8 3.3 0.0099999988
  4.0999999 3.3 0.0099999988
  4.25 3.3 0.0099999988
  4.4000001 3.3 0.0099999988
  4.4499998 3.3 0.0099999988
  4.4899998 3.3 0.0099999988
  4.5 3.3 0.0099999988
  0.0099999988 3.7 0.0099999988
  0.050000001 3.7 0.0099999988
  0.1 3.7 0.0099999988
  0.25 3.7 0.0099999988
  0.40000001 3.7 0.0099999988
  0.69999999 3.7 0.0099999988
  1.05 3.7 0.0099999988
  1.4 3.7 0.0099999988
  1.7 3.7 0.0099999988
  2.0999999 3.7 0.0099999988
  2.5 3.7 0.0099999988
  2.8 3.7 0.0099999988
  3.0999999 3.7 0.0099999988
  3.5 3.7 0.0099999988
  3.8 3.7 0.0099999988
  4.0999999 3.7 0.0099999988
  4.25 3.7 0.0099999988
  4.4000001 3.7 0.0099999988
  4.4499998 3.7 0.0099999988
  4.4899998 3.7 0.0099999988
  4.5 3.7 0.0099999988
  0.0099999988 4.0999999 0.0099999988
  0.050000001 4.0999999 0.0099999988
  0.1 4.0999999 0.0099999988
  0.25 4.0999999 0.0099999988
  0.40000001 4.0999999 0.0099999988
  0.69999999 4.0999999 0.0099999988
  1.05 4.0999999 0.0099999988
  1.4 4.0999999 0.0099999988
  1.7 4.0999999 0.0099999988
  2.0999999 4.0999999 0.0099999988
  2.5 4.0999999 0.0099999988
  2.8 4.0999999 0.0099999988
  3.0999999 4.0999999 0.0099999988
  3.5 4.0999999 0.0099999988
  3.8 4.0999999 0.0099999988
  4.0999999 4.0999999 0.0099999988
  4.25 4.0999999 0.0099999988
  4.4000001 4.0999999 0.0099999988
  4.4499998 4.0999999 0.0099999988
  4.4899998 4.0999999 0.0099999988
  4.5 4.0999999 0.0099999988
  0.0099999988 4.25 0.0099999988
  0.050000001 4.25 0.0099999988
  0.1 4.25 0.0099999988
  0.25 4.25 0.0099999988
  0.40000001 4.25 0.0099999988
  0.69999999 4.25 0.0099999988
  1.05 4.25 0.0099999988
  1.4 4.25 0.0099999988
  1.7 4.25 0.0099999988
  2.0999999 4.25 0.0099999988
  2.5 4.25 0.0099999988
  2.8 4.25 0.0099999988
  3.0999999 4.25 0.0099999988
  3.5 4.25 0.0099999988
  3.8 4.25 0.0099999988
  4.0999999 4.25 0.0099999988
  4.25 4.25 0.0099999988
  4.4000001 4.25 0.0099999988
  4.4499998 4.25 0.0099999988
  4.4899998 4.25 0.0099999988
[...]
POINT_DATA 8400
VECTORS velocity float
  -0.0048785931 -0.003731532 0.0086101256
  -0.001402334 -0.005856371 0.0049830368
  0.0001031113 -0.0056202891 0.005316515
  -0.006998911 -0.00275124 0.00322428
  -0.01466733 0.0054379362 -0.0049269609
  -0.0084939674 0.016711351 -0.016917169
  -0.003706912 0.0068650511 -0.0070018219
  0.001491147 -0.001641323 0.001492817
  0.0055188281 -0.00043271371 0.00029848379
  0.01151449 -0.0035636921 0.003413819
  0.01102294 -0.0059526968 0.0059649982
  -0.001034965 -0.0070116189 0.0074135629
  0 -0.007156413 0.0071219271
  0 0 0
  0 0 0
  0 0 0
  0 0 0
  0 0 0
  0 0 0
  0 0 0
  0 0 0
  -0.0061468151 -0.0104098 0.0078122038
  -0.0025617101 -0.01360971 0.001036467
  -0.00058167177 -0.01417397 0.001737726
  -0.0089979926 -0.01231324 0.0029492611
  -0.01435085 -0.0073325201 0.0035481041
  -0.01285961 0.001672392 0.0037098101
  -0.003408165 0.0128697 -0.001770638
  0.01000183 0.008076096 -0.002811573
  0.01634839 0.0079109529 -0.002296468
  0.023355599 0.0068523651 -0.0027783059
  0.02122524 0.0059885201 -0.0029313259
  0.0029737439 0.0046671289 -0.0023106281
  0 0.0022083679 -0.0022413449
  0 0 0
  0 0 0
  0 0 0
  0 0 0
  0 0 0
  0 0 0
  0 0 0
  0 0 0
  -0.0070204982 -0.008718852 0.006679792
  -0.0047316402 -0.01181142 -0.00093665707
  -0.001107134 -0.01287434 -0.00098893314
  -0.007614655 -0.01262879 0.00049489317
  -0.01115121 -0.01174896 0.001117853
  -0.01141893 -0.01004212 0.0023516039
  -0.006193588 0.00369228 0.0016866541
  0.0089082494 0.01247878 -0.001311237
  0.01403103 0.01219179 -0.00102608
  0.0184651 0.01159033 -0.001057688
  0.0139909 0.0092735887 -0.00054453738
  -0.002680016 0.0075108139 -1.244496e-05
  0 0.0002644927 0.00030009361
  0 0 0
  0 0 0
  0 0 0
  0 0 0
  0 0 0
  0 0 0
  0 0 0
  0 0 0
  -0.008955121 0.01393593 0.0074444031
  -0.0076396829 0.01749057 -0.002285212
  -0.003920503 0.01469408 -0.0025842329
  -0.0075101592 0.0071861609 -0.001082354
  -0.0077677849 -0.01037772 -7.4674972e-05
  -0.0050945352 -0.020393649 0.00060088717
  -0.002914591 -0.0193781 0.001475791
  0.0046567111 -0.01456487 0.001586713
  0.0086830091 -0.0127467 0.001528507
  0.01239789 -0.01067272 0.001391466
  0.0101175 -0.0091055958 0.0012823991
  -0.0033491801 -0.0050617452 0.001287168
  0 -0.009115031 0.00051378162
  0 0 0
  0 0 0
  0 0 0
  0 0 0
  0 0 0
  0 0 0
  0 0 0
  0 0 0
  -0.0043243449 -0.001915245 0.0053808088
  -0.0051375809 -0.0034873979 0.001599023
  -0.0090567181 -0.005783746 0.002146556
  -0.01711539 -0.0075071692 0.001516189
  -0.0087800808 -0.0105064 -0.00054753991
  -0.00092590478 -0.022109039 -0.0001475926
  0.003377856 -0.023578189 0.00015702999
  0.0085380934 -0.021292619 0.00030114059
  0.0120339 -0.01854809 0.0002703194
  0.01541722 -0.01487259 0.00019549071
  0.01496655 -0.01184249 0.0001937963
  0.007798878 -0.0059151319 0.00029588849
  5.6201568e-16 0.018325809 -0.001569343
  0 2.559816e-13 0
  0 0 0
  0 0 0
  0 0 0
  0 0 0
  0 0 0
  0 0 0
  0 0 0
  -0.0046466291 -0.002639767 0.0046646819
  -0.0090112397 -0.0049698148 0.0011254949
  -0.0073009371 -0.0081991246 -0.00028410251
  -0.01259206 -0.01137532 0.00044899579
  -0.008572883 -0.01863757 -6.5000349e-05
  0.0020182079 -0.031069109 -0.0001291459
  0.0082142064 -0.033118218 6.1424711e-05
  0.01321634 -0.03161722 0.0001151797
  0.016292591 -0.028415959 0.000144152
  0.0187457 -0.0230429 0.00014293649
  0.020716511 -0.016891491 7.6962016e-05
  0.02562931 -0.01317384 1.771707e-05
  0.053176358 -0.02178129 8.4457337e-05
  0.025907051 -2.738329e-13 0.00068173831
  0.0199815 0.016661629 -0.00021900159
  0.01551775 0.01248117 -0.0001631956
  0.006944071 0.01493757 0.0001982917
  -0.017402619 0.021554351 0.001084517
  -0.01758677 0.031921942 -0.00075997919
  -0.01179647 0.036418431 -0.0023553029
  0 0.03025193 -0.01253683
  -0.0063771592 -0.0095163742 0.0065490301
  -0.01420304 -0.01406331 0.0021807391
  -0.0090029929 -0.01909004 -0.0007704845
  -0.0086569972 -0.02828723 0.00039922461
  -0.0058311792 -0.039184071 0.00032488271
  0.009048379 -0.04909239 -4.5542722e-05
  0.01783859 -0.04579081 6.5589949e-05
  0.023781709 -0.038407259 -1.007263e-07
  0.027181219 -0.032228552 -1.803856e-05
  0.0292571 -0.02626502 2.8637591e-05
  0.02875674 -0.020087309 9.2392031e-05
  0.019330749 -0.01432374 0.00034293349
  1.8463191e-14 -0.0021133779 0.0001526523
  3.3367059e-13 -1.7407909e-14 7.4394873e-20
  1.198071e-06 -0.060747821 0.001935219
  0.0063285031 2.0372e-15 0.0001011877
  0.0096673118 0.0068059349 -1.9108569e-05
  -0.0086888578 0.0094256429 0.001527259
  -0.01240366 0.01700085 0.001117253
  -0.0089083081 0.020765189 -0.00047959341
  0 0.017409669 -0.0085703321
  -0.0099680992 -0.01265413 0.0100465
  -0.0188515 -0.01913498 0.002343751
  -0.01567 -0.030014319 -0.00036667479
  0.00026234239 -0.059346151 -0.0002863332
  0.0076531242 -0.069937699 0.00027560841
  0.027402589 -0.076564454 2.8299901e-05
  0.036954761 -0.064743288 0.00020078479
  0.039520379 -0.04927979 0.00019843179
  0.039268851 -0.036576752 0.0001170204
  0.040429618 -0.02424542 -7.9552272e-05
  0.03977643 -0.018686811 -1.8716381e-05
  0.038823951 -0.015933869 7.1963157e-05
  0.048303749 -0.01191902 -7.0891721e-05
  0.02150451 -0.01559045 0.001059724
  -5.9801941e-18 -0.02014176 -0.00029833539
  2.0918201e-15 0 6.0845202e-20
  0.01816348 0.01052737 -0.001303897
  0.01124059 0.0074520209 0.00051111763
  0.0045622839 0.007805916 0.001566511
  -0.003704618 0.0086393328 0.002372076
  0 0.008757133 -0.0034754509
  -0.01455361 -0.0055565978 0.01435074
  -0.017077031 -0.025166729 0.00079795893
  -0.0083754659 -0.04439358 -0.001334285
  0.023964889 -0.065023132 -0.001994695
  0.040666461 -0.073295757 -0.0010181559
  0.064930812 -0.075455241 -0.00084075041
  0.071570359 -0.065571539 -0.0001661862
  0.068041921 -0.050176151 0.00012631041
  0.060054451 -0.03605799 0.00025132229
  0.051975481 -0.01903272 5.2968178e-05
  0.049881201 -0.0095496103 -0.0002087649
  0.047490839 -0.0060181092 -0.00020369751
  0.038860641 -0.004805766 8.4368578e-05
  0.004238382 -0.0058584712 0.00058745331
  0 -0.0091747493 -0.00017210199
  2.0332209e-20 0 4.656612e-20
  0.01329434 0.0140211 -0.00098607235
  0.01233442 0.006785606 8.3164581e-05
  0.0082142306 0.0048931912 0.00090767618
  -0.0050814189 0.004150671 0.0034529991
  0 0.0041999668 -0.0049464018
  0.1923013 2.6436859e-05 0.0028250071
  0.1792727 0.0001297046 0.0024108861
  0.15463591 0.00026294871 0.0034352229
  0.1163917 0.00065597991 0.00035938161
  0.103423 0.00135027 -0.001624393
  0.1157381 0.0030943209 -0.003029136
  0.1202744 0.004613406 -0.0024693031
  0.1096846 0.0043630749 -0.0015155571
  0.09118402 0.003363285 -0.00069749687
  0.065736897 0.0013248581 -4.251242e-05
  0.052171059 -0.00066955341 4.3055159e-05
  0.04715145 -0.001813189 2.7057409e-05
  0.037198581 -0.0021439181 0.0002429357
  0.001118938 -0.0028935049 0.00080308999
  0 -0.0033515929 -0.0001568734
  0 0 1.333319e-19
  -0.0081439018 -0.001067445 0.0010459
  0.0092360452 -0.001247249 -0.00089088269
  0.01021419 -0.00155254 1.9121881e-05
  -4.8368729e-06 -0.0014886711 0.0027421711
  0 -0.00077945262 0.0001571888
  0.1923013 0.0055530812 0.0028269191
  0.17927881 0.02517684 0.00241736
  0.1546769 0.04440571 0.0034450151
  0.1166186 0.065061256 0.00038934109
  0.1034178 0.073586017 -0.001528659
  0.1146381 0.077224158 -0.002845359
  0.1166769 0.067867838 -0.0021669499
  0.1044543 0.05058888 -0.001191808
  0.086440653 0.03490448 -0.00045107459
  0.065082021 0.01835971 -3.3979319e-05
  0.054804608 0.01058868 -0.000118439
  0.049347851 0.0082741752 -0.0001544601
  0.038361792 0.0060236072 9.3846393e-05
  0.003066954 0.004508439 0.00063556439
  0 0.0060505369 -0.0002112451
  0 0 0
  -0.0094550019 -0.01237562 0.001007271
  0.0088529158 -0.006624151 -0.001041311
  0.01081826 -0.0046080519 -0.0002914033
  0.00075110031 -0.0037645921 0.0025918439
  0 -0.0031985249 0.00082626689
  -0.0146917 0.01423354 0.01444362
  -0.017273201 0.02103628 0.00075672218
  -0.0078424076 0.031977821 -0.0015374389
  0.026767461 0.061228871 -0.002199007
  0.044180419 0.070137292 -0.001063185
  0.06463284 0.074513577 -0.00060462911
  0.067889497 0.063104562 4.285443e-05
  0.064057291 0.04865342 0.000164649
  0.058009531 0.03678656 0.00014769319
  0.052764181 0.025516421 -7.3431969e-05
  0.049307361 0.018639071 -0.00014366199
  0.0453679 0.0156176 -7.8570207e-05
  0.036537532 0.01322458 8.8534172e-05
  0.0035369969 0.016812891 0.00047340809
  0 0.021942509 -0.00033620189
  0 0 1.055014e-20
  0.0092049008 -0.01140696 -0.00064133742
  0.01089224 -0.0075574052 -8.5718719e-05
  0.0087189162 -0.0072563072 0.0005107731
  -0.003967924 -0.0074909902 0.0032791281
  0 -0.0077007841 -0.0038336159
  -0.01026402 0.01044803 0.01035856
  -0.01911385 0.01523458 0.00235224
  -0.015986821 0.02034452 -0.00033926259
  0.0031356411 0.02960629 -0.00048516761
  0.01071664 0.039824478 0.00025174569
  0.02759169 0.047418699 0.0001146219
  0.03435868 0.044140261 0.0002806274
  0.036964241 0.038207229 0.00018661949
  0.03879407 0.033028621 3.288579e-05
  0.041078001 0.027710199 -0.0001119833
  0.042231299 0.02296547 -0.0001370183
  0.04021053 0.017598839 1.781094e-05
  0.045720901 0.004015353 4.6541871e-05
  0.02005293 2.4167331e-14 0.001062013
  -7.0273112e-18 0.062589668 -0.00034775221
  1.9110211e-15 -2.3138039e-15 -1.225999e-19
  0.018324921 -0.0046778321 -0.001389872
  0.01311733 -0.0066365981 0.00032446801
  0.0072318702 -0.01287352 0.001318813
  -0.0043883198 -0.01716239 0.003149685
  0 -0.0152173 -0.0041836812
  -0.0068543232 0.002668641 0.0070487261
  -0.01480757 0.004931475 0.0022423221
  -0.0085876444 0.0086202566 -0.00095406838
  -0.0050669359 0.01198517 0.0002052076
  -0.00492759 0.01795096 0.00053711171
  0.0087923547 0.029423879 -7.6167121e-06
  0.016496301 0.031547569 9.4629118e-05
  0.022092979 0.030773779 2.58986e-05
  0.026729351 0.0293695 -6.306811e-05
  0.030335249 0.02587186 -4.4174001e-05
  0.031069109 0.01996335 5.6732191e-05
  0.018869201 0.0145345 0.00048332161
  2.369542e-14 0.02383896 0.0001334484
  3.2464271e-13 2.9979109e-13 -6.4391429e-20
  2.9762821e-06 -0.01224436 0.001870765
  0.003398936 -0.01279082 0.0002066735
  0.01035807 -0.0148455 -0.0002093825
  -0.0061323079 -0.02101713 0.001459384
  -0.01121132 -0.0308671 0.001467754
  -0.008989973 -0.03498929 -0.0001050159
  0 -0.029691979 -0.0086014597
  -0.0058253221 0.0029204821 0.0058189682
  -0.0079856478 0.0048548058 0.00053988222
  -0.004344976 0.0065383082 -0.00067797309
  -0.01274056 0.0069448361 0.00068537053
  -0.0082198279 0.01084883 -0.00012404801
  0.001351358 0.021653339 -0.0001248389
  0.0073718731 0.02479063 -3.0992489e-06
  0.01339606 0.02434844 -1.145459e-05
  0.017029081 0.02239478 5.3338819e-05
  0.01982232 0.01790759 0.00012934909
  0.020941211 0.01289981 0.0001486968
  0.025393059 0.0048580761 9.3636299e-05
  0.051081128 -0.021100789 0.0002673688
  0.02322278 -2.3819111e-13 0.0006965333
  0.01846342 0 -0.0001472936
  0.01506188 0 -0.0002061851
  0.007694847 0 0.0001204361
  -0.016037909 0 0.0010573911
  -0.01699842 0 -0.00057692069
  -0.01190116 0 -0.002143237
  0 0 -0.01261002
  -0.0042726579 -0.01142919 0.0052291732
  -0.0066622728 -0.01405357 0.001856438
  -0.0093963286 -0.01030215 0.001668204
  -0.016344391 -0.0037412881 0.001175333
  -0.0077530248 0.01034154 -0.0005390853
  -0.00069734087 0.019523449 -9.3196781e-05
  0.003618178 0.01982554 0.0002078025
  0.0092554092 0.01739751 0.00030250681
  0.01199898 0.01535836 0.0003778851
  0.01517839 0.01171534 0.00033358851
  0.01363262 0.0091496473 0.00028893861
  0.0086669046 0.0054880991 0.00012387001
  -3.4857921e-19 0.0099311657 -0.0017795101
  0 0 0
  0 0 0
  0 0 0
  0 0 0
  0 0 0
  0 0 0
  0 0 0
  0 0 0
  -0.0073657362 0.0059213219 0.006208878
  -0.0047785719 0.0088352449 -0.002174003
  -0.0053200722 0.0087193009 -0.001160897
  -0.0096645793 0.0093248403 -0.00058167608
  -0.0064800112 0.01163729 -0.00029874899
  -0.0042084982 0.0093168318 0.00060485431
  -0.001696409 -0.0038074669 0.001504039
  0.0051606628 -0.01321742 0.001845467
  0.0079179043 -0.01422739 0.001880951
  0.01188506 -0.01415795 0.001626214
  0.0088526988 -0.01160085 0.00145973
  -0.0045344532 -0.0088688163 0.001404005
  0 -0.001151247 0.00058837218
  0 0 0
  0 0 0
  0 0 0
  0 0 0
  0 0 0
  0 0 0
  0 0 0
  0 0 0
  -0.006875426 0.0091928542 0.0062205638
  -0.003884143 0.0124493 -0.001472462
  -0.002905915 0.01156323 -0.00076590938
  -0.0086230226 0.01037394 0.00017093121
  -0.0098592453 0.0071698939 0.000976048
  -0.01027358 -0.0028918311 0.0024563521
  -0.005515018 -0.0127537 0.001654665
  0.00887571 -0.0094801793 -0.001156861
  0.01367366 -0.0094736349 -0.00110869
  0.01932768 -0.007494607 -0.001471839
  0.01431375 -0.0064398609 -0.00090444088
  -0.003738384 -0.0052473159 -0.0001199717
  0 -0.0038568419 0.00041926061
  0 0 0
  0 0 0
  0 0 0
  0 0 0
  0 0 0
  0 0 0
  0 0 0
  0 0 0
  -0.005939994 0.004602591 0.0070860479
  -0.0027843469 0.0064761811 0.00070158311
  -0.002529873 0.00523458 0.001529131
  -0.0094919801 0.0024890651 0.0024347771
  -0.01302097 -0.0058949119 0.003502151
  -0.01123974 -0.01890533 0.0039460901
  -0.0034186239 -0.01038549 -0.00081219111
  0.01019264 0.00033617951 -0.00283899
  0.01512318 -0.001214439 -0.0022247019
  0.022960391 0.0034477599 -0.0029266281
  0.020770621 0.0067323581 -0.0032328209
  0.001761821 0.0081107048 -0.0027000171
  0 0.0084848413 -0.003020474
  0 0 0
  0 0 0
  0 0 0
  0 0 0
  0 0 0
  0 0 0
  0 0 0
  0 0 0
  -0.0049575372 0 0.0095496653
  -0.001852399 0 0.0056909872
  -0.001469954 0 0.0051512402
  -0.0079280613 0 0.002917252
  -0.01356537 0 -0.0055140262
  -0.0073267529 0 -0.019099619
  -0.0012373769 0 -0.01054003
  0.001273326 0 0.00028751919
  0.003757823 0 -0.001271646
  0.01134711 0 0.00328629
  0.01110153 0 0.0067699738
  -0.00174427 0 0.0085717468
  0 0 0.0084607089
  0 0 0
  0 0 0
  0 0 0
  0 0 0
  0 0 0
  0 0 0
  0 0 0
  0 0 0
  -0.0053795669 -0.0055947411 0.030545801
  -0.0061438601 -0.0095461868 0.024441579
  -0.0071462342 -0.0094714314 0.02464697
  -0.016142489 -0.0098573184 0.02412995
  -0.01779403 -0.01338801 0.02206428
  -0.0076876241 -0.02020519 0.02281861
  0.003045642 -0.01233482 0.017056709
  0.01350234 -0.00687049 0.01463989
  0.017527649 -0.0054573901 0.01094883
  0.01887612 -0.002922819 0.0091955364
  0.016028591 -0.001806583 0.0097233718
  0.0021964549 -0.002209689 0.01275773
  0 -0.0036488301 0.01456887
  0 0 0
  0 0 0
  0 0 0
  0 0 0
  0 0 1.164153e-20
  0 0 0
  0 0 0
  0 0 0
  -0.0063950829 -0.0151 0.025339119
  -0.0096095754 -0.021191301 0.0084576309
  -0.01060517 -0.02194 0.0083635058
  -0.01865715 -0.02341569 0.01079832
  -0.018275309 -0.028864359 0.01123314
  -0.005561132 -0.040021449 0.0127698
  0.0083652297 -0.034004308 0.0082690446
  0.02423179 -0.025614269 0.0056550121
  0.034532178 -0.0213686 0.0049739508
  0.043429788 -0.015865861 0.003249686
  0.04182208 -0.0116306 0.0020621871
  0.016699299 -0.0078367069 0.0021788201
  0 -0.006723816 0.00041060601
  0 0 0
  0 0 0
  0 0 0
  0 0 0
  0 0 1.164153e-20
  0 0 0
  0 0 0
  0 0 0
  -0.0079029072 -0.01110446 0.02087364
  -0.01215383 -0.01502472 -0.0012848841
  -0.01330102 -0.01606811 -0.002884039
  -0.019391781 -0.021349279 0.00047756461
  -0.01549699 -0.033346221 0.0023894859
  0.001700962 -0.052882981 0.0063491128
  0.01531728 -0.04910598 0.0069495882
  0.03030498 -0.04415622 0.0052499408
  0.040429201 -0.039332181 0.0054853782
  0.048799939 -0.032856941 0.0053210999
  0.047608521 -0.026387829 0.0054186778
  0.0262444 -0.018983981 0.0058714892
  0 -0.01436481 0.0051069269
  0 0 0
  0 0 0
  0 0 0
  0 0 0
  0 0 1.164153e-20
  0 0 0
  0 0 0
  0 0 0
  -0.0084072342 0.01479765 0.02079466
  -0.01451957 0.01549137 -0.0033025269
  -0.01548954 0.0034346271 -0.0048000598
  -0.0205674 -0.0087393047 -0.0020877549
  -0.01310929 -0.03056466 -0.001440772
  0.0088034198 -0.06556645 0.00083089853
  0.021735059 -0.073585793 0.004000816
  0.035506159 -0.070398882 0.0042989622
  0.045160189 -0.066316009 0.0044829519
  0.052900851 -0.058834258 0.0044682571
  0.052239291 -0.050258771 0.0044984249
  0.034686789 -0.039643779 0.0052121468
  0 -0.02624063 0.004409858
  0 0 0
  0 0 0
  0 0 0
  0 0 0
  0 0 1.164153e-20
  0 0 0
  0 0 0
  0 0 0
  -0.0069560339 -0.0097280182 0.022552449
  -0.016499979 -0.016401069 0.0106188
  -0.0216223 -0.02106615 0.0074590119
  -0.02600963 -0.025004631 0.0042688041
  -0.009780935 -0.034067132 -0.0022452211
  0.01944256 -0.072266921 -0.001202777
  0.037315339 -0.084914424 0.00064612029
  0.051592309 -0.084544078 0.001371393
  0.06181265 -0.080107681 0.001427965
  0.069562577 -0.070786178 0.001401696
  0.071347237 -0.0602488 0.001436671
  0.060946669 -0.048302881 0.0021439311
  6.0965561e-13 -0.017581049 0.001339299
  0 -7.8148371e-13 0
  0 -1.2474629e-19 0
  0 2.2516241e-20 0
  0 0 0
  0 0 1.164153e-20
  0 0 0
  0 0 0
  0 0 0
  -0.0085620191 -0.0098785684 0.021785559
  -0.019131809 -0.01645579 0.0064086691
  -0.018380869 -0.021886909 -0.00054671633
  -0.01761399 -0.034053799 0.0007984027
  -0.0023868741 -0.05409329 -0.001094689
  0.028122939 -0.089385912 -0.001307438
  0.049177218 -0.1000947 -0.00038278839
  0.064164922 -0.09977521 2.0236939e-05
  0.074351817 -0.094554648 0.00018734801
  0.081301123 -0.083354123 0.00042386411
  0.08480598 -0.069827117 0.00038063541
  0.088242799 -0.059209861 0.00033396031
  0.1031527 -0.058902621 0.001156581
  0.077500932 -2.719266e-12 0.0019643609
  0.065604828 0.01264373 -5.7998681e-05
  0.057047412 0.02357734 -0.00077136949
  0.0447984 0.03022223 0.00032097241
  0.01233028 0.038453609 0.003491807
  -0.0097203823 0.059924129 0.0050683091
  -0.002732021 0.064089812 -0.0090471245
  0 0.040315051 -0.020004161
  -0.0093658222 -0.017034721 0.02562635
  -0.02052344 -0.025432151 0.0082032438
  -0.01556506 -0.030514831 -0.0023263281
  -0.002371311 -0.052754261 -0.00042587941
  0.017188299 -0.083900832 -0.0007935774
  0.051446859 -0.1098512 -0.001306521
  0.077141874 -0.1146025 -0.00067751191
  0.094015978 -0.1083127 -0.00053759688
  0.1049061 -0.09958791 -0.00049249048
  0.1106994 -0.086633213 -9.7141659e-05
  0.1104699 -0.07276082 0.0002504997
  0.09860415 -0.060737751 0.001210325
  1.849236e-12 -0.04214235 0.0058882181
  2.9817811e-12 -2.458675e-12 1.098664e-19
  1.536678e-06 -0.084156118 0.0067751999
  0.023078529 -8.3451099e-16 -0.00025819571
  0.02853572 0.016276339 -4.8790211e-05
  0.0065558441 0.02304762 0.0052291541
  -0.009600535 0.033795919 0.0088905571
  -0.0025610591 0.049031869 -0.0032392689
  0 0.02665876 -0.0129967
  -0.0099606933 -0.01130098 0.02966579
  -0.02207122 -0.01515606 0.007878649
  -0.01646496 -0.01299875 -0.0034900941
  0.02221345 -0.085054979 -0.0038296741
  0.046679921 -0.1063005 -0.001867743
  0.086110033 -0.124224 -0.0018821791
  0.1138166 -0.1220082 -0.001012449
  0.1284548 -0.1092301 -0.00059239002
  0.13650399 -0.095584244 -0.0006199698
  0.139589 -0.077917457 -0.0006697225
  0.13863941 -0.063427992 -0.00043798611
  0.136123 -0.054573711 -6.8607238e-05
  0.1270594 -0.045962829 0.00072426058
  0.089351334 -0.038499739 0.004870052
  -1.294841e-17 -0.042091001 0.003555146
  6.6353031e-14 0 3.6216079e-19
  0.033441111 0.021364549 -0.0060168239
  0.026986379 0.021027191 0.0014735369
  0.01635254 0.021738229 0.006426184
  0.0049035642 0.02320167 0.009393312
  0 0.017182451 0.0068141529
  -0.0085635772 -0.0052124448 0.031109249
  -0.0086078877 -0.02584769 0.001422007
  0.01348703 -0.047805231 -0.0081904409
  0.05777733 -0.078542322 -0.0082738362
  0.093466222 -0.093506627 -0.0065091709
  0.1348331 -0.10105 -0.004923359
  0.1607127 -0.095845729 -0.0031404139
  0.17009351 -0.084075019 -0.0018474821
  0.17201249 -0.072192878 -0.001213545
  0.1670637 -0.054812979 -0.001020056
  0.1600354 -0.040164649 -0.001186864
  0.1547949 -0.031430211 -0.001177017
  0.13947619 -0.02540228 -6.946209e-05
  0.093526147 -0.020968281 0.001883021
  0 -0.021032071 0.0048595071
  1.123711e-19 0 9.2586572e-20
  0.02314329 0.03350386 -0.004765362
  0.026945779 0.02301118 -0.0005368666
  0.021694761 0.02000054 0.003108653
  0.0082957903 0.01587694 0.01057299