# vtk DataFile Version 2.0
Sample rectilinear grid
ASCII
DATASET RECTILINEAR_GRID
DIMENSIONS 47 33 44
X_COORDINATES 47 float
-1.22396 -1.17188 -1.11979 -1.06771 -1.01562 -0.963542 
-0.911458 -0.859375 -0.807292 -0.755208 -0.703125 -0.651042 
-0.598958 -0.546875 -0.494792 -0.442708 -0.390625 -0.338542 
-0.286458 -0.234375 -0.182292 -0.130209 -0.078125 -0.026042 
0.0260415 0.078125 0.130208 0.182291 0.234375 0.286458 
0.338542 0.390625 0.442708 0.494792 0.546875 0.598958 
0.651042 0.703125 0.755208 0.807292 0.859375 0.911458 
0.963542 1.01562 1.06771 1.11979 1.17188 
Y_COORDINATES 33 float
-1.25 -1.17188 -1.09375 -1.01562 -0.9375 -0.859375 
-0.78125 -0.703125 -0.625 -0.546875 -0.46875 -0.390625 
-0.3125 -0.234375 -0.15625 -0.078125 0 0.078125 
0.15625 0.234375 0.3125 0.390625 0.46875 0.546875 
0.625 0.703125 0.78125 0.859375 0.9375 1.01562 
1.09375 1.17188 1.25 
Z_COORDINATES 44 float
0 0.1 0.2 0.3 0.4 0.5 
0.6 0.7 0.75 0.8 0.9 1 
1.1 1.2 1.3 1.4 1.5 1.6 
1.7 1.75 1.8 1.9 2 2.1 
2.2 2.3 2.4 2.5 2.6 2.7 
2.75 2.8 2.9 3 3.1 3.2 
3.3 3.4 3.5 3.6 3.7 3.75 
3.8 3.9 
POINT_DATA 68244
SCALARS scalars float
LOOKUP_TABLE default
0 0 0 0 0 0 
0 0 0 0 0 0 
0 0 0 0 0 0 
0 0 0 0 0 0 
0 0 0 0 0 0 
0 0 0 0 0 0 
0 0 0 0 0 0 
0 0 0 0 0 0 
0 0 0 0 0 0 
0 0 0 0 0 0 
0 0 0 0 0 0 
0 0 0 0 0 0 
0 0 0 0 0 0 
0 0 0 0 0 0 
0 0 0 0 0 0 
0 0 0 0 0 0 
0 0 0 0 0 0 
0 0 0 0 0 0 
0 0 0 0 0 0 
0 0 0 0 0 0 
0 0 0 0 0 0 
0 0 0 0 0 0 
0 0 0 0 0 0 
0 0 0 0 0 0 
0 0 0 0 0 0 
0 0 0 0 0 0 
0 0 0 0 0 0 
0 0 0 0 0 0 
0 0 0 0 0 0 
0 0 0 0 0 0 
0 0 0 0 0 0 
0 0 0 0 0 0 
0 0 0 0 0 0 
0 0 0 0 0 0 
0 0 0 0 0 0 
0 0 0 0 0 0 
0 0 0 0 0 0 
0 0 0 0 0 0 
0 0 0 0 0 0 
0 0 0 0 0 0 
0 0 0 0 0 0 
0 0 0 0 0 0 
0 0 0 0 0 0 
0 0 0 0 0 0 
0 0 0 0 0 0 
0 0 0 0 0 0 
0 0 0 0 0 0 
0 0 0 0 0 0 
0 0 0 0 0 0 
0 0 0 0 0 0 
0 0 0 0 0 0 
0 0 0 0 0 0 
0 0 0 0 0 0 
0 0 0 0 0 0 
0 0 0 0 0 0 
0 0 0 0 0 0 
0 0 0 0 0 0 
0 0 0 0 0 0 
0 0 0 0 0 0 
0 0 0 0 0 0 
0 0 0 0 0 0 
0 0 0 0 0 0 
0 0 0 0 0 0 
0 0 0 0 0 0 
0 0 0 0 0 0 
0 0 0 0 0 0 
0 0 0 0 0 0 
0 0 0 0 0 0 
0 0 0 0 0 0 
0 0 0 0 0 0 
0 0 0 0 0 0 
0 0 0 0 0 0 
0 0 0 0 0 0 
0 0 0 0 0 0 
0 0 0 0 0 0 
0 0 0 0 0 0 
0 0 0 0 0 0 
0 0 0 0 0 0 
0 0 0 0 0 0 
0 0 0 0 0 0 
0 0 0 0 0 0 
0 0 0 0 0 0 
0 0 0 0 0 0 
0 0 0 0 0 0 
0 0 0 0 0 0 
0 0 0 0 0 0 
0 0 0 0 0 0 
0 0 0 0 0 0 
0 0 0 0 0 0 
0 0 0 0 0 0 
0 0 0 0 0 0 
0 0 0 0 0 0 
0 0 0 0 0 0 
0 0 0 0 0 0 
0 0 0 0 0 0 
0 0 0 0 0 0 
0 0 0 0 0 0 
0 0 0 0 0 0 
0 0 0 0 0 0 
0 0 0 0 0 0 
0 0 0 0 0 0 
0 0 0 0 0 0 
0 0 0 0 0 0 
0 0 0 0 0 0 
0 0 0 0 0 0 
0 0 0 0 0 0 
0 0 0 0 0 0 
0 0 0 0 0 0 
0 0 0 0 0 0 
0 0 0 0 0 0 
0 0 0 0 0 0 
0 0 0 0 0 0 
0 0 0 0 0 0 
0 0 0 0 0 0 
0 0 0 0 0 0 
0 0 0 0 0 0 
0 0 0 0 0 0 
0 0 0 0 0 0 
0 0 0 0 0 0 
0 0 0 0 0 0 
0 0 0 0 0 0 
0 0 0 0 0 0 
0 0 0 0 0 0 
0 0 0 0 0 0 
0 0 0 0 0 0 
0 0 0 0 0 0 
0 0 0 0 0 0 
0 0 0 0 0 0 
0 0 0 0 0 0 
0 0 0 0 0 0 
0 0 0 0 0 0 
0 0 0 0 0 0 
0 0 0 0 0 0 
0 0 0 0 0 0 
0 0 0 0 0 0 
0 0 0 0 0 0 
0 0 0 0 0 0 
0 0 0 0 0 0 
0 0 0 0 0 0 
0 0 0 0 0 0 
0 0 0 0 0 0 
0 0 0 0 0 0 
0 0 0 0 0 0 
0 0 0 0 0 0 
0 0 0 0 0 0 
0 0 0 0 0 0 
0 0 0 0 0 0 
0 0 0 0 0 0 
0 0 0 0 0 0 
0 0 0 0 0 0 
0 0 0 0 0 0 
0 0 0 0 0 0 
0 0 0 0 0 0 
0 0 0 0 0 0 
0 0 0 0 0 0 
0 0 0 0 0 0 
0 0 0 0 0 0 
0 0 0 0 0 0 
0 0 0 0 0 0 
0 0 0 0 0 0 
0 0 0 0 0 0 
0 0 0 0 0 0 
0 0 0 0 0 0 
0 0 0 0 0 0 
0 0 0 0 0 0 
0 0 0 0 0 0 
0 0 0 0 0 0 
0 0 0 0 0 0 
0 0 0 0 0 0 
0 0 0 0 0 0 
0 0 0 0 0 0 
0 0 0 0 0 0 
0 0 0 0 0 0 
0 0 0 0 0 0 
0 0 0 0 0 0 
0 0 0 0 0 0 
0 0 0 0 0 0 
0 0 0 0 0 0 
0 0 0 0 0 0 
0 0 0 0 0 0 
0 0 0 0 0 0 
0 0 0 0 0 0 
0 0 0 0 0 0 
0 0 0 0 0 0 
0 0 0 0 0 0 
0 0 0 0 0 0 
0 0 0 0 0 0 
0 0 0 0 0 0 
0 0 0 0 0 0 
0 0 0 0 0 0 
0 0 0 0 0 0 
0 0 0 0 0 0 
0 0 0 0 0 0 
0 0 0 0 0 0 
0 0 0 0 0 0 
0 0 0 0 0 0 
0 0 0 0 0 0 
0 0 0 0 0 0 
0 0 0 0 0 0 
0 0 0 0 0 0 
0 0 0 0 0 0 
0 0 0 0 0 0 
0 0 0 0 0 0 
0 0 0 0 0 0 
0 0 0 0 0 0 
0 0 0 0 0 0 
0 0 0 0 0 0 
0 0 0 0 0 0 
0 0 0 0 0 0 
0 0 0 0 0 0 
0 0 0 0 0 0 
0 0 0 0 0 0 
0 0 0 0 0 0 
0 0 0 0 0 0 
0 0 0 0 0 0 
0 0 0 0 0 0 
0 0 0 0 0 0 
0 0 0 0 0 0 
0 0 0 0 0 0 
0 0 0 0 0 0 
0 0 0 0 0 0 
0 0 0 0 0 0 
0 0 0 0 0 0 
0 0 0 0 0 0 
0 0 0 0 0 0 
0 0 0 0 0 0 
0 0 0 0 0 0 
0 0 0 0 0 0 
0 0 0 0 0 0 
0 0 0 0 0 0 
0 0 0 0 0 0 
0 0 0 0 0 0 
0 0 0 0 0 0 
0 0 0 0 0 0 
0 0 0 0 0 0 
0 0 0 0 0 0 
0 0 0 0 0 0 
0 0 0 0 0 0 
0 0 0 0 0 0 
0 0 0 0 0 0 
0 0 0 0 0 0 
0 0 0 0 0 0 
0 0 0 0 0 0 
0 0 0 0 0 0 
0 0 0 0 0 0 
0 0 0 0 0 0 
0 0 0 0 0 0 
0 0 0 0 0 0 
0 0 0 0 0 0 
0 0 0 0 0 0 
0 0 0 0 0 0 
0 0 0 0 0 0 
0 0 0 0 0 0 
0 0 0 0 0 0 
0 0 0 0 0 0 
0 0 0 0 0 0 
0 0 0 0 0 0 
0 0 0 0 0 0 
0 0 0 0.0737012 0.0739102 0.0741808 
0.0745185 0.0749277 0.0754124 0.0759753 0.0766175 0.0773384 
0.0781352 0.0790023 0.0799316 0.080912 0.081929 0.0829659 
0.084003 0.0850187 0.0859903 0.0868944 0.0877086 0.0884122 
0.0889874 0.0894205 0.0897025 0.0898298 0.0898041 0.0896328 
0.0893274 0.0889042 0.088382 0.0877808 0.0871221 0.086426 
0.0857118 0.0849963 0.0842939 0.0836164 0.0829728 0.0823694 
0.0818106 0.0812986 0.0808342 0.0804168 0.0800448 0.0797162 
0.0794282 0.0791778 0.0730946 0.0733023 0.0735823 0.0739418 
0.0743877 0.0749263 0.0755623 0.0762989 0.0771371 0.078075 
0.0791074 0.0802253 0.0814156 0.0826609 0.0839394 0.0852258 
0.0864908 0.0877036 0.0888316 0.0898436 0.0907102 0.0914063 
0.0919123 0.092216 0.0923126 0.092206 0.0919076 0.0914359 
0.0908151 0.0900729 0.0892393 0.0883442 0.0874162 0.086481 
0.0855607 0.0846733 0.0838325 0.0830478 0.0823253 0.0816681 
0.0810769 0.0805501 0.0800853 0.0796787 0.0793263 0.0790238 
0.0787663 0.0724305 0.0726278 0.0729087 0.0732837 0.0737627 
0.0743551 0.0750691 0.0759111 0.0768849 0.0779906 0.0792242 
0.0805768 0.0820333 0.0835724 0.0851667 0.0867824 0.0883803 
0.0899173 0.0913478 0.0926268 0.093712 0.0945667 0.0951628 
0.0954827 0.0955211 0.0952849 0.0947928 0.0940738 0.0931651 
0.0921084 0.0909481 0.0897271 0.0884858 0.0872589 0.086075 
0.084956 0.083917 0.0829672 0.0821109 0.0813484 0.0806767 
0.080091 0.0795853 0.0791528 0.0787867 0.07848 0.078226 
0.0717006 0.0718738 0.072143 0.0725225 0.0730265 0.073669 
0.0744634 0.0754209 0.07655 0.0778551 0.079335 0.0809818 
0.0827791 0.0847022 0.0867156 0.088775 0.0908266 0.0928095 
0.0946581 0.0963061 0.0976905 0.0987569 0.0994637 0.0997858 
0.099717 0.0992711 0.0984793 0.0973885 0.096056 0.0945459 
0.0929233 0.0912509 0.0895848 0.0879721 0.0864493 0.0850424 
0.0837668 0.0826292 0.0816291 0.0807611 0.0800164 0.0793842 
0.0788532 0.0784119 0.0780496 0.077756 0.077522 0.0708955 
0.0710255 0.0712645 0.0716311 0.0721457 0.0728289 0.0737013 
0.0747821 0.0760875 0.0776292 0.0794117 0.0814307 0.0836707 
0.0861026 0.0886827 0.0913515 0.0940345 0.0966438 0.0990827 
0.101251 0.103051 0.104401 0.105237 0.105523 0.105254 
0.104461 0.103197 0.101538 0.0995792 0.097415 0.0951418 
0.0928482 0.0906113 0.0884935 0.0865404 0.0847813 0.0832299 
0.0818868 0.0807428 0.0797824 0.0789864 0.0783347 0.0778077 
0.0773875 0.0770578 0.0768044 0.0766152 0.0699619 0.0700222 
0.0702033 0.0705305 0.0710315 0.0717365 0.0726769 0.0738836 
0.0753855 0.0772064 0.079362 0.0818565 0.0846783 0.0877966 
0.091158 0.0946835 0.0982688 0.101785 0.105085 0.10801 
0.110407 0.112139 0.113109 0.113264 0.112612 0.111216 
0.109179 0.106639 0.103745 0.100643 0.0974693 0.0943428 
0.0913609 0.0886005 0.0861156 0.0839375 0.0820756 0.0805206 
0.0792489 0.0782287 0.0774246 0.076802 0.076329 0.0759781 
0.0757261 0.0755541 0.0754465 0.068812 0.0687663 0.0688511 
0.0690995 0.0695497 0.0702446 0.071231 0.0725579 0.0742737 
0.0764228 0.0790406 0.0821484 0.0857461 0.0898066 0.0942688 
0.0990316 0.10395 0.108833 0.113448 0.117535 0.120832 
0.123101 0.124176 0.123983 0.122563 0.120058 0.116691 
0.112719 0.1084 0.103959 0.0995755 0.0953869 0.0914941 
0.0879711 0.0848701 0.0822205 0.0800265 0.0782678 0.0769035 
0.0758791 0.0751358 0.0746172 0.0742737 0.0740644 0.0739565 
0.0739253 0.0739515 0.0672676 0.0670682 0.0670048 0.0671198 
0.0674648 0.0681001 0.0690942 0.0705229 0.072465 0.0749976 
0.0781899 0.0820942 0.0867374 0.092111 0.09816 0.104769 
0.111747 0.11881 0.125582 0.131602 0.13638 0.139465 
0.140543 0.139512 0.13651 0.131884 0.126115 0.119718 
0.113155 0.106774 0.100799 0.0953431 0.0904504 0.0861369 
0.0824145 0.0792946 0.0767778 0.0748411 0.0734324 0.0724757 
0.0718832 0.071569 0.0714576 0.0714884 0.071616 0.0718076 
0.0720397 0.0651138 0.0647033 0.0644272 0.0643396 0.0645081 
0.0650163 0.0659632 0.0674623 0.0696376 0.0726164 0.0765206 
0.0814575 0.0875108 0.0947302 0.103114 0.11258 0.122912 
0.133698 0.14428 0.153759 0.161115 0.165408 0.166051 
0.162976 0.156656 0.147952 0.137889 0.127436 0.117369 
0.108196 0.100157 0.093274 0.0874329 0.0824834 0.0783084 
0.0748506 0.0720962 0.0700371 0.0686362 0.0678155 0.0674649 
0.0674647 0.0677047 0.068096 0.0685733 0.0690921 0.0696237 
0.0621161 0.061432 0.060872 0.0605024 0.060411 0.0607102 
0.0615401 0.0630657 0.0654725 0.0689569 0.0737185 0.0799562 
0.087873 0.0976777 0.109565 0.12364 0.139768 0.157339 
0.175054 0.190912 0.202557 0.207968 0.206202 0.197761 
0.184337 0.168122 0.151099 0.13471 0.119863 0.107057 
0.0964743 0.0880134 0.0813573 0.0760967 0.0718662 0.0684324 
0.0657042 0.0636809 0.0623749 0.0617524 0.0617161 0.0621259 
0.0628344 0.0637146 0.0646714 0.0656415 0.0665865 0.0581886 
0.0571757 0.056266 0.0555388 0.0551044 0.0551112 0.0557488 
0.0572464 0.0598636 0.0638802 0.0695983 0.0773694 0.0876478 
0.101042 0.118312 0.14019 0.166925 0.197527 0.229072 
0.256666 0.274599 0.278512 0.267528 0.244901 0.216461 
0.187674 0.161524 0.138662 0.118912 0.102233 0.0887382 
0.0783944 0.0708651 0.0655561 0.061794 0.059022 0.0569126 
0.0553666 0.0544229 0.0541377 0.0544963 0.0553928 0.0566667 
0.0581537 0.0597202 0.0612743 0.0627604 0.0534751 0.0520988 
0.0507943 0.049653 0.0488091 0.0484499 0.0488205 0.0502174 
0.0529728 0.0574486 0.0640751 0.0734611 0.0865748 0.10495 
0.130759 0.166402 0.213212 0.269355 0.327958 0.377152 
0.403349 0.397211 0.359472 0.302562 0.245137 0.200554 
0.168622 0.141924 0.116774 0.0942728 0.0762352 0.0631021 
0.0542751 0.0488619 0.0459272 0.044556 0.0440016 0.0438296 
0.0439319 0.044406 0.0453789 0.0468776 0.0488061 0.0509995 
0.0532929 0.055559 0.0577172 0.0486713 0.0469364 0.0452335 
0.0436632 0.0423812 0.0416124 0.0416547 0.0428633 0.045626 
0.0503762 0.0577163 0.0686995 0.0852941 0.110958 0.150908 
0.211103 0.2951 0.399202 0.508292 0.596061 0.632678 
0.598765 0.499385 0.369877 0.266461 0.223431 0.206309 
0.175457 0.130563 0.087441 0.0579576 0.0431414 0.0360634 
0.0312751 0.0277401 0.0260588 0.026336 0.0278125 0.0296654 
0.0315597 0.0335721 0.035885 0.0385678 0.0415379 0.0446366 
0.0477093 0.0506455 0.0454661 0.0434291 0.041379 0.03942 
0.0377227 0.0365434 0.0362287 0.0371897 0.0398717 0.0448114 
0.0529088 0.066011 0.0878905 0.125447 0.1891 0.290555 
0.436678 0.620206 0.811575 0.95961 1.00707 0.918165 
0.705675 0.447016 0.293535 0.316454 0.334875 0.277851 
0.177692 0.0827414 0.036742 0.0506569 0.0602054 0.0578949 
0.0491054 0.038022 0.0274738 0.0197056 0.0163458 0.0168688 
0.0191674 0.0221035 0.0254477 0.0291269 0.0329935 0.0368677 
0.0406023 0.046882 0.0446569 0.0423734 0.0401354 0.038126 
0.0366384 0.0360925 0.0370176 0.0400261 0.0459306 0.0562224 
0.074075 0.10592 0.163172 0.262586 0.422692 0.65392 
0.943069 1.23993 1.45974 1.51035 1.33699 0.964263 
0.525946 0.351991 0.500815 0.545642 0.433216 0.2464 
0.0746969 0.0539564 0.108853 0.124882 0.118461 0.101949 
0.081998 0.0620263 0.0440904 0.029522 0.0189698 0.0125707 
0.0103865 0.0118073 0.0152092 0.0194182 0.0238587 0.0282312 
0.0538268 0.0515378 0.0491553 0.0467891 0.0446483 0.0430969 
0.0427026 0.0442429 0.0486794 0.0572895 0.0722967 0.0982187 
0.143886 0.224565 0.362397 0.581628 0.894925 1.28189 
1.67152 1.94783 1.98859 1.72509 1.19515 0.58501 
0.434318 0.70062 0.75727 0.58394 0.310975 0.065933 
0.0952266 0.168137 0.184398 0.171691 0.147455 0.120085 
0.0932878 0.0691082 0.0489271 0.0333547 0.0220297 0.0138775 
0.00797532 0.00537947 0.00806416 0.0126768 0.0174617 0.058657 
0.0563666 0.0539698 0.0515823 0.0494344 0.0479415 0.0477753 
0.0498836 0.0554536 0.0660198 0.084136 0.114857 0.167951 
0.260214 0.415925 0.661487 1.01009 1.43776 1.86436 
2.16092 2.19342 1.8884 1.28984 0.606476 0.476832 
0.790954 0.850806 0.650443 0.340361 0.064253 0.111737 
0.190741 0.206556 0.191055 0.163726 0.133602 0.104413 
0.0781222 0.056106 0.0390172 0.0265005 0.0173554 0.0101862 
0.00416786 0.00303118 0.0080807 0.0131969 0.0538268 0.0515378 
0.0491553 0.0467891 0.0446483 0.0430969 0.0427026 0.0442429 
0.0486794 0.0572895 0.0722967 0.0982187 0.143886 0.224565 
0.362397 0.581628 0.894925 1.28189 1.67152 1.94783 
1.98859 1.72509 1.19515 0.58501 0.434318 0.70062 
0.75727 0.58394 0.310975 0.065933 0.0952266 0.168137 
0.184398 0.171691 0.147455 0.120085 0.0932878 0.0691082 
0.0489271 0.0333547 0.0220297 0.0138775 0.00797532 0.00537947 
0.00806416 0.0126768 0.0174617 0.046882 0.0446569 0.0423734 
0.0401354 0.038126 0.0366384 0.0360925 0.0370176 0.0400261 
0.0459306 0.0562224 0.074075 0.10592 0.163172 0.262586 
0.422692 0.65392 0.943069 1.23993 1.45974 1.51035 
1.33699 0.964263 0.525946 0.351991 0.500815 0.545642 
0.433216 0.2464 0.0746969 0.0539564 0.108853 0.124882 
0.118461 0.101949 0.081998 0.0620263 0.0440904 0.029522 
0.0189698 0.0125707 0.0103865 0.0118073 0.0152092 0.0194182 
0.0238587 0.0282312 0.0454661 0.0434291 0.041379 0.03942 
0.0377227 0.0365434 0.0362287 0.0371897 0.0398717 0.0448114 
0.0529088 0.066011 0.0878905 0.125447 0.1891 0.290555 
0.436678 0.620206 0.811575 0.95961 1.00707 0.918165 
0.705675 0.447016 0.293535 0.316454 0.334875 0.277851 
0.177692 0.0827414 0.036742 0.0506569 0.0602054 0.0578949 
0.0491054 0.038022 0.0274738 0.0197056 0.0163458 0.0168688 
0.0191674 0.0221035 0.0254477 0.0291269 0.0329935 0.0368677 
0.0406023 0.0486713 0.0469364 0.0452335 0.0436632 0.0423812 
0.0416124 0.0416547 0.0428633 0.045626 0.0503762 0.0577163 
0.0686995 0.0852941 0.110958 0.150908 0.211103 0.2951 
0.399202 0.508292 0.596061 0.632678 0.598765 0.499385 
0.369877 0.266461 0.223431 0.206309 0.175457 0.130563 
0.087441 0.0579576 0.0431414 0.0360634 0.0312751 0.0277401 
0.0260588 0.026336 0.0278125 0.0296654 0.0315597 0.0335721 
0.035885 0.0385678 0.0415379 0.0446366 0.0477093 0.0506455 
0.0534751 0.0520988 0.0507943 0.049653 0.0488091 0.0484499 
0.0488205 0.0502174 0.0529728 0.0574486 0.0640751 0.0734611 
0.0865748 0.10495 0.130759 0.166402 0.213212 0.269355 
0.327958 0.377152 0.403349 0.397211 0.359472 0.302562 
0.245137 0.200554 0.168622 0.141924 0.116774 0.0942728 
0.0762352 0.0631021 0.0542751 0.0488619 0.0459272 0.044556 
0.0440016 0.0438296 0.0439319 0.044406 0.0453789 0.0468776 
0.0488061 0.0509995 0.0532929 0.055559 0.0577172 0.0581886 
0.0571757 0.056266 0.0555388 0.0551044 0.0551112 0.0557488 
0.0572464 0.0598636 0.0638802 0.0695983 0.0773694 0.0876478 
0.101042 0.118312 0.14019 0.166925 0.197527 0.229072 
0.256666 0.274599 0.278512 0.267528 0.244901 0.216461 
0.187674 0.161524 0.138662 0.118912 0.102233 0.0887382 
0.0783944 0.0708651 0.0655561 0.061794 0.059022 0.0569126 
0.0553666 0.0544229 0.0541377 0.0544963 0.0553928 0.0566667 
0.0581537 0.0597202 0.0612743 0.0627604 0.0621161 0.061432 
0.060872 0.0605024 0.060411 0.0607102 0.0615401 0.0630657 
0.0654725 0.0689569 0.0737185 0.0799562 0.087873 0.0976777 
0.109565 0.12364 0.139768 0.157339 0.175054 0.190912 
0.202557 0.207968 0.206202 0.197761 0.184337 0.168122 
0.151099 0.13471 0.119863 0.107057 0.0964743 0.0880134 
0.0813573 0.0760967 0.0718662 0.0684324 0.0657042 0.0636809 
0.0623749 0.0617524 0.0617161 0.0621259 0.0628344 0.0637146 
0.0646714 0.0656415 0.0665865 0.0651138 0.0647033 0.0644272 
0.0643396 0.0645081 0.0650163 0.0659632 0.0674623 0.0696376 
0.0726164 0.0765206 0.0814575 0.0875108 0.0947302 0.103114 
0.11258 0.122912 0.133698 0.14428 0.153759 0.161115 
0.165408 0.166051 0.162976 0.156656 0.147952 0.137889 
0.127436 0.117369 0.108196 0.100157 0.093274 0.0874329 
0.0824834 0.0783084 0.0748506 0.0720962 0.0700371 0.0686362 
0.0678155 0.0674649 0.0674647 0.0677047 0.068096 0.0685733 
0.0690921 0.0696237 0.0672676 0.0670682 0.0670048 0.0671198 
0.0674648 0.0681001 0.0690942 0.0705229 0.072465 0.0749976 
0.0781899 0.0820942 0.0867374 0.092111 0.09816 0.104769 
0.111747 0.11881 0.125582 0.131602 0.13638 0.139465 
0.140543 0.139512 0.13651 0.131884 0.126115 0.119718 
0.113155 0.106774 0.100799 0.0953431 0.0904504 0.0861369 
0.0824145 0.0792946 0.0767778 0.0748411 0.0734324 0.0724757 
0.0718832 0.071569 0.0714576 0.0714884 0.071616 0.0718076 
0.0720397 0.068812 0.0687663 0.0688511 0.0690995 0.0695497 
0.0702446 0.071231 0.0725579 0.0742737 0.0764228 0.0790406 
0.0821484 0.0857461 0.0898066 0.0942688 0.0990316 0.10395 
0.108833 0.113448 0.117535 0.120832 0.123101 0.124176 
0.123983 0.122563 0.120058 0.116691 0.112719 0.1084 
0.103959 0.0995755 0.0953869 0.0914941 0.0879711 0.0848701 
0.0822205 0.0800265 0.0782678 0.0769035 0.0758791 0.0751358 
0.0746172 0.0742737 0.0740644 0.0739565 0.0739253 0.0739515 
0.0699619 0.0700222 0.0702033 0.0705305 0.0710315 0.0717365 
0.0726769 0.0738836 0.0753855 0.0772064 0.079362 0.0818565 
0.0846783 0.0877966 0.091158 0.0946835 0.0982688 0.101785 
0.105085 0.10801 0.110407 0.112139 0.113109 0.113264 
0.112612 0.111216 0.109179 0.106639 0.103745 0.100643 
0.0974693 0.0943428 0.0913609 0.0886005 0.0861156 0.0839375 
0.0820756 0.0805206 0.0792489 0.0782287 0.0774246 0.076802 
0.076329 0.0759781 0.0757261 0.0755541 0.0754465 0.0708955 
0.0710255 0.0712645 0.0716311 0.0721457 0.0728289 0.0737013 
0.0747821 0.0760875 0.0776292 0.0794117 0.0814307 0.0836707 
0.0861026 0.0886827 0.0913515 0.0940345 0.0966438 0.0990827 
0.101251 0.103051 0.104401 0.105237 0.105523 0.105254 
0.104461 0.103197 0.101538 0.0995792 0.097415 0.0951418 
0.0928482 0.0906113 0.0884935 0.0865404 0.0847813 0.0832299 
0.0818868 0.0807428 0.0797824 0.0789864 0.0783347 0.0778077 
0.0773875 0.0770578 0.0768044 0.0766152 0.0717006 0.0718738 
0.072143 0.0725225 0.0730265 0.073669 0.0744634 0.0754209 
0.07655 0.0778551 0.079335 0.0809818 0.0827791 0.0847022 
0.0867156 0.088775 0.0908266 0.0928095 0.0946581 0.0963061 
0.0976905 0.0987569 0.0994637 0.0997858 0.099717 0.0992711 
0.0984793 0.0973885 0.096056 0.0945459 0.0929233 0.0912509 
0.0895848 0.0879721 0.0864493 0.0850424 0.0837668 0.0826292 
0.0816291 0.0807611 0.0800164 0.0793842 0.0788532 0.0784119 
0.0780496 0.077756 0.077522 0.0724305 0.0726278 0.0729087 
0.0732837 0.0737627 0.0743551 0.0750691 0.0759111 0.0768849 
0.0779906 0.0792242 0.0805768 0.0820333 0.0835724 0.0851667 
0.0867824 0.0883803 0.0899173 0.0913478 0.0926268 0.093712 
0.0945667 0.0951628 0.0954827 0.0955211 0.0952849 0.0947928 
0.0940738 0.0931651 0.0921084 0.0909481 0.0897271 0.0884858 
0.0872589 0.086075 0.084956 0.083917 0.0829672 0.0821109 
0.0813484 0.0806767 0.080091 0.0795853 0.0791528 0.0787867 
0.07848 0.078226 0.0730946 0.0733023 0.0735823 0.0739418 
0.0743877 0.0749263 0.0755623 0.0762989 0.0771371 0.078075 
0.0791074 0.0802253 0.0814156 0.0826609 0.0839394 0.0852258 
0.0864908 0.0877036 0.0888316 0.0898436 0.0907102 0.0914063 
0.0919123 0.092216 0.0923126 0.092206 0.0919076 0.0914359 
0.0908151 0.0900729 0.0892393 0.0883442 0.0874162 0.086481 
0.0855607 0.0846733 0.0838325 0.0830478 0.0823253 0.0816681 
0.0810769 0.0805501 0.0800853 0.0796787 0.0793263 0.0790238 
0.0787663 0.0737012 0.0739102 0.0741808 0.0745185 0.0749277 
0.0754124 0.0759753 0.0766175 0.0773384 0.0781352 0.0790023 
0.0799316 0.080912 0.081929 0.0829659 0.084003 0.0850187 
0.0859903 0.0868944 0.0877086 0.0884122 0.0889874 0.0894205 
0.0897025 0.0898298 0.0898041 0.0896328 0.0893274 0.0889042 
0.088382 0.0877808 0.0871221 0.086426 0.0857118 0.0849963 
0.0842939 0.0836164 0.0829728 0.0823694 0.0818106 0.0812986 
0.0808342 0.0804168 0.0800448 0.0797162 0.0794282 0.0791778 
0.147455 0.147823 0.148309 0.148923 0.149673 0.150568 
0.151612 0.152811 0.154162 0.155661 0.1573 0.159063 
0.16093 0.162875 0.164866 0.166866 0.168836 0.17073 
0.172505 0.174116 0.175525 0.176695 0.1776 0.17822 
0.178547 0.178583 0.178339 0.177835 0.177102 0.176173 
0.175087 0.173883 0.172599 0.171273 0.169935 0.168614 
0.167333 0.16611 0.164958 0.163886 0.162899 0.161999 
0.161186 0.160458 0.15981 0.15924 0.158741 0.146276 
0.146638 0.147136 0.147785 0.148599 0.149588 0.150764 
0.152135 0.153701 0.155463 0.157409 0.159527 0.16179 
0.164167 0.166618 0.169095 0.171544 0.173905 0.176117 
0.178119 0.179853 0.181271 0.182333 0.183014 0.183302 
0.183203 0.182735 0.181931 0.180836 0.179501 0.177981 
0.176333 0.174611 0.172865 0.171135 0.169458 0.167861 
0.166364 0.164977 0.16371 0.162563 0.161537 0.160625 
0.159822 0.159123 0.158516 0.157997 0.144994 0.14533 
0.145824 0.146494 0.147362 0.148445 0.149761 0.151322 
0.153136 0.155208 0.157529 0.160085 0.162849 0.165781 
0.168833 0.171939 0.175028 0.178015 0.180815 0.183341 
0.185511 0.187253 0.18851 0.189248 0.18945 0.189129 
0.188316 0.187062 0.185437 0.183516 0.181385 0.179123 
0.176807 0.174504 0.172268 0.170145 0.168162 0.16634 
0.164689 0.163209 0.161898 0.160748 0.159748 0.158886 
0.15815 0.157527 0.157007 0.143595 0.143877 0.144341 
0.145011 0.145916 0.147083 0.14854 0.150308 0.152405 
0.154843 0.157621 0.160725 0.164129 0.167788 0.171634 
0.175586 0.179543 0.18339 0.187 0.190248 0.193011 
0.195185 0.196684 0.197459 0.197493 0.196806 0.195452 
0.193518 0.191108 0.188341 0.18534 0.182224 0.179099 
0.176057 0.173169 0.170485 0.168039 0.165845 0.163905 
0.162209 0.160744 0.159491 0.15843 0.157539 0.156799 
0.156191 0.1557 0.142059 0.142253 0.142649 0.143285 
0.144197 0.145429 0.147018 0.149005 0.151421 0.154291 
0.157628 0.161426 0.16566 0.170276 0.175193 0.180304 
0.185466 0.190512 0.195263 0.199522 0.203108 0.205856 
0.207644 0.208396 0.208098 0.206795 0.204585 0.201609 
0.198032 0.19404 0.189811 0.185514 0.181299 0.177286 
0.173564 0.170193 0.167203 0.164597 0.162362 0.160471 
0.15889 0.157582 0.156511 0.155646 0.154956 0.154413 
0.153996 0.140285 0.140339 0.140616 0.141163 0.142036 
0.143292 0.144991 0.147197 0.149964 0.153343 0.157366 
0.162046 0.167366 0.17327 0.179659 0.186389 0.193261 
0.200035 0.206431 0.212149 0.216899 0.220421 0.222519 
0.223093 0.222141 0.219765 0.216154 0.211554 0.206239 
0.200485 0.194553 0.188667 0.183022 0.177766 0.173009 
0.168815 0.165205 0.162168 0.159662 0.157632 0.156012 
0.154739 0.153753 0.153004 0.152448 0.152049 0.151777 
0.138101 0.137944 0.138026 0.138411 0.13917 0.140386 
0.14215 0.144557 0.147701 0.151672 0.156543 0.162356 
0.169116 0.176777 0.185226 0.194273 0.203645 0.212984 
0.221855 0.229774 0.236244 0.240828 0.243205 0.243226 
0.240946 0.236608 0.230601 0.223387 0.215437 0.207174 
0.198947 0.191027 0.18362 0.176879 0.170913 0.165784 
0.161506 0.158045 0.155329 0.153259 0.151726 0.150627 
0.149867 0.14937 0.149075 0.148933 0.148908 0.135153 
0.134695 0.134483 0.134598 0.135138 0.136217 0.137967 
0.140532 0.144068 0.148724 0.154637 0.161911 0.170598 
0.180687 0.19207 0.204528 0.217698 0.23105 0.243882 
0.255351 0.264559 0.27069 0.273171 0.271797 0.266788 
0.258733 0.248466 0.236894 0.224849 0.212988 0.201751 
0.191391 0.182028 0.173725 0.16652 0.160447 0.155509 
0.151666 0.148824 0.146844 0.145565 0.144826 0.144486 
0.14443 0.144569 0.144842 0.145203 0.131015 0.130146 
0.129518 0.129231 0.129414 0.130223 0.131846 0.134503 
0.138429 0.143871 0.151063 0.160211 0.171473 0.184934 
0.200576 0.21822 0.237446 0.257475 0.277105 0.294724 
0.308513 0.31683 0.318636 0.313796 0.303102 0.288011 
0.270264 0.251537 0.233208 0.216233 0.201122 0.188002 
0.176748 0.167141 0.158996 0.152217 0.146776 0.142652 
0.139778 0.138009 0.137147 0.136968 0.137269 0.137878 
0.138671 0.13956 0.140487 0.125218 0.12382 0.12264 
0.121802 0.121468 0.121849 0.12321 0.125861 0.130158 
0.136475 0.14519 0.156678 0.171306 0.189431 0.21136 
0.237224 0.26671 0.298669 0.330772 0.359485 0.380701 
0.390936 0.388603 0.37461 0.351858 0.324016 0.294365 
0.265309 0.238454 0.214817 0.194896 0.178681 0.165738 
0.155405 0.147052 0.14025 0.134812 0.130717 0.127975 
0.126526 0.1262 0.126745 0.127891 0.129398 0.131085 
0.132823 0.134537 0.117588 0.11556 0.113707 0.112177 
0.111173 0.110968 0.111919 0.114454 0.119068 0.126291 
0.136694 0.150923 0.169781 0.194315 0.225793 0.265419 
0.313528 0.368302 0.424551 0.47367 0.505683 0.513094 
0.494636 0.456294 0.408293 0.359706 0.314943 0.274639 
0.2386 0.207269 0.181376 0.161207 0.146329 0.135721 
0.12815 0.122556 0.118283 0.115093 0.113024 0.112171 
0.112525 0.113914 0.116061 0.118666 0.121475 0.124304 
0.127042 0.108412 0.105695 0.103092 0.100772 0.0989798 
0.0980598 0.0984658 0.100752 0.105549 0.113548 0.125554 
0.142669 0.166593 0.199981 0.246575 0.310525 0.394137 
0.49415 0.598382 0.685791 0.732327 0.721654 0.655728 
0.557763 0.461632 0.389325 0.336772 0.289133 0.240966 
0.196164 0.159511 0.132604 0.114526 0.103473 0.0974756 
0.0946488 0.0934739 0.0930441 0.0930844 0.0937391 0.0952544 
0.0977271 0.101032 0.104899 0.109028 0.113175 0.117174 
0.0990884 0.0956999 0.0923543 0.0892346 0.0866242 0.0849328 
0.0847073 0.0866104 0.0913813 0.099853 0.113149 0.133161 
0.163352 0.209784 0.281648 0.389551 0.539915 0.726256 
0.92168 1.07924 1.14554 1.08576 0.909363 0.682352 
0.510111 0.448613 0.424582 0.367197 0.278885 0.190822 
0.126665 0.0908042 0.0729922 0.0628149 0.0568536 0.0551035 
0.0569767 0.0607301 0.0648176 0.0686576 0.0724377 0.076578 
0.0813188 0.0866074 0.0922054 0.0978396 0.103293 0.0929986 
0.0890617 0.0850907 0.0812774 0.0779322 0.0755192 0.0746673 
0.0761365 0.0807771 0.0896245 0.104355 0.128297 0.16816 
0.236219 0.35113 0.533979 0.797246 1.12815 1.47405 
1.74355 1.83365 1.67852 1.29917 0.837071 0.575145 
0.631659 0.673645 0.570559 0.379908 0.191999 0.0787321 
0.0827816 0.101928 0.10033 0.0856733 0.0660021 0.0473607 
0.0351692 0.0328015 0.0370303 0.0430202 0.0491703 0.0555226 
0.0622636 0.0693214 0.0764536 0.0834068 0.096147 0.091889 
0.0875249 0.0832505 0.0794024 0.0765119 0.0753359 0.0768382 
0.0821716 0.0928896 0.111774 0.144598 0.202961 0.307425 
0.488199 0.77869 1.19777 1.72213 2.26254 2.66767 
2.77143 2.47154 1.80571 1.01109 0.683986 0.961349 
1.06438 0.869232 0.521043 0.188203 0.0744589 0.183509 
0.22228 0.215734 0.187608 0.151229 0.113699 0.0794388 
0.0515458 0.032123 0.0226773 0.0225716 0.0275074 0.0344477 
0.0423095 0.0505263 0.0586826 0.110246 0.105896 0.101381 
0.09691 0.0928727 0.0899293 0.0891006 0.0917974 0.0998182 
0.115603 0.143331 0.1913 0.275562 0.423759 0.675856 
1.0755 1.64553 2.34989 3.06246 3.57633 3.67102 
3.21687 2.27061 1.1548 0.815661 1.30989 1.45232 
1.15711 0.653119 0.182443 0.139624 0.292496 0.334934 
0.318239 0.27637 0.226308 0.175881 0.129551 0.0904197 
0.0601151 0.038408 0.0236599 0.014724 0.0136254 0.0196897 
0.0281688 0.0370386 0.11997 0.115626 0.111093 0.106594 
0.102552 0.0997229 0.099312 0.103043 0.113142 0.132558 
0.166118 0.223137 0.321404 0.49135 0.776793 1.22523 
1.86043 2.63994 3.42143 3.97495 4.05857 3.53312 
2.46446 1.2109 0.880718 1.46654 1.62326 1.28396 
0.713059 0.184161 0.167291 0.333865 0.37665 0.355334 
0.307962 0.252857 0.197965 0.147627 0.104942 0.0716032 
0.0473338 0.0300958 0.0173494 0.00863723 0.0104943 0.0191494 
0.0284783 0.110246 0.105896 0.101381 0.09691 0.0928727 
0.0899293 0.0891006 0.0917974 0.0998182 0.115603 0.143331 
0.1913 0.275562 0.423759 0.675856 1.0755 1.64553 
2.34989 3.06246 3.57633 3.67102 3.21687 2.27061 
1.1548 0.815661 1.30989 1.45232 1.15711 0.653119 
0.182443 0.139624 0.292496 0.334934 0.318239 0.27637 
0.226308 0.175881 0.129551 0.0904197 0.0601151 0.038408 
0.0236599 0.014724 0.0136254 0.0196897 0.0281688 0.0370386 
0.096147 0.091889 0.0875249 0.0832505 0.0794024 0.0765119 
0.0753359 0.0768382 0.0821716 0.0928896 0.111774 0.144598 
0.202961 0.307425 0.488199 0.77869 1.19777 1.72213 
2.26254 2.66767 2.77143 2.47154 1.80571 1.01109 
0.683986 0.961349 1.06438 0.869232 0.521043 0.188203 
0.0744589 0.183509 0.22228 0.215734 0.187608 0.151229 
0.113699 0.0794388 0.0515458 0.032123 0.0226773 0.0225716 
0.0275074 0.0344477 0.0423095 0.0505263 0.0586826 0.0929986 
0.0890617 0.0850907 0.0812774 0.0779322 0.0755192 0.0746673 
0.0761365 0.0807771 0.0896245 0.104355 0.128297 0.16816 
0.236219 0.35113 0.533979 0.797246 1.12815 1.47405 
1.74355 1.83365 1.67852 1.29917 0.837071 0.575145 
0.631659 0.673645 0.570559 0.379908 0.191999 0.0787321 
0.0827816 0.101928 0.10033 0.0856733 0.0660021 0.0473607 
0.0351692 0.0328015 0.0370303 0.0430202 0.0491703 0.0555226 
0.0622636 0.0693214 0.0764536 0.0834068 0.0990884 0.0956999 
0.0923543 0.0892346 0.0866242 0.0849328 0.0847073 0.0866104 
0.0913813 0.099853 0.113149 0.133161 0.163352 0.209784 
0.281648 0.389551 0.539915 0.726256 0.92168 1.07924 
1.14554 1.08576 0.909363 0.682352 0.510111 0.448613 
0.424582 0.367197 0.278885 0.190822 0.126665 0.0908042 
0.0729922 0.0628149 0.0568536 0.0551035 0.0569767 0.0607301 
0.0648176 0.0686576 0.0724377 0.076578 0.0813188 0.0866074 
0.0922054 0.0978396 0.103293 0.108412 0.105695 0.103092 
0.100772 0.0989798 0.0980598 0.0984658 0.100752 0.105549 
0.113548 0.125554 0.142669 0.166593 0.199981 0.246575 
0.310525 0.394137 0.49415 0.598382 0.685791 0.732327 
0.721654 0.655728 0.557763 0.461632 0.389325 0.336772 
0.289133 0.240966 0.196164 0.159511 0.132604 0.114526 
0.103473 0.0974756 0.0946488 0.0934739 0.0930441 0.0930844 
0.0937391 0.0952544 0.0977271 0.101032 0.104899 0.109028 
0.113175 0.117174 0.117588 0.11556 0.113707 0.112177 
0.111173 0.110968 0.111919 0.114454 0.119068 0.126291 
0.136694 0.150923 0.169781 0.194315 0.225793 0.265419 
0.313528 0.368302 0.424551 0.47367 0.505683 0.513094 
0.494636 0.456294 0.408293 0.359706 0.314943 0.274639 
0.2386 0.207269 0.181376 0.161207 0.146329 0.135721 
0.12815 0.122556 0.118283 0.115093 0.113024 0.112171 
0.112525 0.113914 0.116061 0.118666 0.121475 0.124304 
0.127042 0.125218 0.12382 0.12264 0.121802 0.121468 
0.121849 0.12321 0.125861 0.130158 0.136475 0.14519 
0.156678 0.171306 0.189431 0.21136 0.237224 0.26671 
0.298669 0.330772 0.359485 0.380701 0.390936 0.388603 
0.37461 0.351858 0.324016 0.294365 0.265309 0.238454 
0.214817 0.194896 0.178681 0.165738 0.155405 0.147052 
0.14025 0.134812 0.130717 0.127975 0.126526 0.1262 
0.126745 0.127891 0.129398 0.131085 0.132823 0.134537 