# vtk DataFile Version 2.0
vtk output
ASCII
DATASET POLYDATA
POINTS 58 float
0 0 0.5 0 0 -0.5 0.191342 0 0.46194 
0.353553 0 0.353553 0.46194 0 0.191342 0.5 0 -2.18557e-08 
0.46194 0 -0.191342 0.353553 0 -0.353553 0.191342 0 -0.46194 
0.135299 0.135299 0.46194 0.25 0.25 0.353553 0.326641 0.326641 0.191342 
0.353553 0.353553 -2.18557e-08 0.326641 0.326641 -0.191342 0.25 0.25 -0.353553 
0.135299 0.135299 -0.46194 -8.36381e-09 0.191342 0.46194 -1.54543e-08 0.353553 0.353553 
-2.0192e-08 0.46194 0.191342 -2.18557e-08 0.5 -2.18557e-08 -2.0192e-08 0.46194 -0.191342 
-1.54543e-08 0.353553 -0.353553 -8.36381e-09 0.191342 -0.46194 -0.135299 0.135299 0.46194 
-0.25 0.25 0.353553 -0.326641 0.326641 0.191342 -0.353553 0.353553 -2.18557e-08 
-0.326641 0.326641 -0.191342 -0.25 0.25 -0.353553 -0.135299 0.135299 -0.46194 
-0.191342 -1.67276e-08 0.46194 -0.353553 -3.09086e-08 0.353553 -0.46194 -4.03841e-08 0.191342 
-0.5 -4.37114e-08 -2.18557e-08 -0.46194 -4.03841e-08 -0.191342 -0.353553 -3.09086e-08 -0.353553 
-0.191342 -1.67276e-08 -0.46194 -0.135299 -0.135299 0.46194 -0.25 -0.25 0.353553 
-0.326641 -0.326641 0.191342 -0.353553 -0.353553 -2.18557e-08 -0.326641 -0.326641 -0.191342 
-0.25 -0.25 -0.353553 -0.135299 -0.135299 -0.46194 2.28173e-09 -0.191342 0.46194 
4.21608e-09 -0.353553 0.353553 5.50858e-09 -0.46194 0.191342 5.96244e-09 -0.5 -2.18557e-08 
5.50858e-09 -0.46194 -0.191342 4.21608e-09 -0.353553 -0.353553 2.28173e-09 -0.191342 -0.46194 
0.135299 -0.135299 0.46194 0.25 -0.25 0.353553 0.326641 -0.326641 0.191342 
0.353554 -0.353553 -2.18557e-08 0.326641 -0.326641 -0.191342 0.25 -0.25 -0.353553 
0.135299 -0.135299 -0.46194 
POLYGONS 112 448
3 2 9 0 
3 9 16 0 
3 16 23 0 
3 23 30 0 
3 30 37 0 
3 37 44 0 
3 44 51 0 
3 51 2 0 
3 8 1 15 
3 15 1 22 
3 22 1 29 
3 29 1 36 
3 36 1 43 
3 43 1 50 
3 50 1 57 
3 57 1 8 
3 2 3 10 
3 2 10 9 
3 3 4 11 
3 3 11 10 
3 4 5 12 
3 4 12 11 
3 5 6 13 
3 5 13 12 
3 6 7 14 
3 6 14 13 
3 7 8 15 
3 7 15 14 
3 9 10 17 
3 9 17 16 
3 10 11 18 
3 10 18 17 
3 11 12 19 
3 11 19 18 
3 12 13 20 
3 12 20 19 
3 13 14 21 
3 13 21 20 
3 14 15 22 
3 14 22 21 
3 16 17 24 
3 16 24 23 
3 17 18 25 
3 17 25 24 
3 18 19 26 
3 18 26 25 
3 19 20 27 
3 19 27 26 
3 20 21 28 
3 20 28 27 
3 21 22 29 
3 21 29 28 
3 23 24 31 
3 23 31 30 
3 24 25 32 
3 24 32 31 
3 25 26 33 
3 25 33 32 
3 26 27 34 
3 26 34 33 
3 27 28 35 
3 27 35 34 
3 28 29 36 
3 28 36 35 
3 30 31 38 
3 30 38 37 
3 31 32 39 
3 31 39 38 
3 32 33 40 
3 32 40 39 
3 33 34 41 
3 33 41 40 
3 34 35 42 
3 34 42 41 
3 35 36 43 
3 35 43 42 
3 37 38 45 
3 37 45 44 
3 38 39 46 
3 38 46 45 
3 39 40 47 
3 39 47 46 
3 40 41 48 
3 40 48 47 
3 41 42 49 
3 41 49 48 
3 42 43 50 
3 42 50 49 
3 44 45 52 
3 44 52 51 
3 45 46 53 
3 45 53 52 
3 46 47 54 
3 46 54 53 
3 47 48 55 
3 47 55 54 
3 48 49 56 
3 48 56 55 
3 49 50 57 
3 49 57 56 
3 51 52 3 
3 51 3 2 
3 52 53 4 
3 52 4 3 
3 53 54 5 
3 53 5 4 
3 54 55 6 
3 54 6 5 
3 55 56 7 
3 55 7 6 
3 56 57 8 
3 56 8 7 

CELL_DATA 112
FIELD FieldData 1
Array_0 1 112 int
0 1 2 3 4 5 6 7 8 
9 10 11 12 13 14 15 16 17 
18 19 20 21 22 23 24 25 26 
27 28 29 30 31 32 33 34 35 
36 37 38 39 40 41 42 43 44 
45 46 47 48 49 50 51 52 53 
54 55 56 57 58 59 60 61 62 
63 64 65 66 67 68 69 70 71 
72 73 74 75 76 77 78 79 80 
81 82 83 84 85 86 87 88 89 
90 91 92 93 94 95 96 97 98 
99 100 101 102 103 104 105 106 107 
108 109 110 111 

POINT_DATA 58
NORMALS normals float
0 0 1 0 0 -1 0.382683 0 0.92388 
0.707107 0 0.707107 0.92388 0 0.382683 1 0 -4.37114e-08 
0.92388 0 -0.382684 0.707107 0 -0.707107 0.382683 0 -0.92388 
0.270598 0.270598 0.92388 0.5 0.5 0.707107 0.653282 0.653282 0.382683 
0.707107 0.707107 -4.37114e-08 0.653281 0.653281 -0.382684 0.5 0.5 -0.707107 
0.270598 0.270598 -0.92388 -1.67276e-08 0.382683 0.92388 -3.09086e-08 0.707107 0.707107 
-4.03841e-08 0.92388 0.382683 -4.37114e-08 1 -4.37114e-08 -4.03841e-08 0.92388 -0.382684 
-3.09086e-08 0.707107 -0.707107 -1.67276e-08 0.382683 -0.92388 -0.270598 0.270598 0.92388 
-0.5 0.5 0.707107 -0.653282 0.653282 0.382683 -0.707107 0.707107 -4.37114e-08 
-0.653281 0.653281 -0.382684 -0.5 0.5 -0.707107 -0.270598 0.270598 -0.92388 
-0.382683 -3.34553e-08 0.92388 -0.707107 -6.18172e-08 0.707107 -0.92388 -8.07681e-08 0.382683 
-1 -8.74228e-08 -4.37114e-08 -0.92388 -8.07681e-08 -0.382684 -0.707107 -6.18172e-08 -0.707107 
-0.382683 -3.34552e-08 -0.92388 -0.270598 -0.270598 0.92388 -0.5 -0.5 0.707107 
-0.653281 -0.653282 0.382683 -0.707107 -0.707107 -4.37114e-08 -0.653281 -0.653282 -0.382684 
-0.5 -0.5 -0.707107 -0.270598 -0.270598 -0.92388 4.56345e-09 -0.382683 0.92388 
8.43216e-09 -0.707107 0.707107 1.10172e-08 -0.92388 0.382683 1.19249e-08 -1 -4.37114e-08 
1.10172e-08 -0.92388 -0.382684 8.43216e-09 -0.707107 -0.707107 4.56345e-09 -0.382683 -0.92388 
0.270598 -0.270598 0.92388 0.5 -0.5 0.707107 0.653282 -0.653281 0.382683 
0.707107 -0.707107 -4.37114e-08 0.653282 -0.653281 -0.382684 0.5 -0.5 -0.707107 
0.270598 -0.270598 -0.92388 

FIELD FieldData 1
Array_0 1 58 int
0 1 2 3 4 5 6 7 8 
9 10 11 12 13 14 15 16 17 
18 19 20 21 22 23 24 25 26 
27 28 29 30 31 32 33 34 35 
36 37 38 39 40 41 42 43 44 
45 46 47 48 49 50 51 52 53 
54 55 56 57 
