# vtk DataFile Version 1.0
Track 2

ASCII

DATASET POLYDATA
POINTS 16267 float
      0.01      0.07   1470.00
      0.02      0.08   1470.50
      0.02      0.09   1471.00
      0.02      0.10   1471.50
      0.02      0.10   1472.00
      0.02      0.11   1472.50
      0.03      0.12   1473.00
      0.03      0.13   1473.50
      0.03      0.14   1474.00
      0.03      0.15   1474.50
      0.03      0.16   1475.00
      0.04      0.17   1475.50
      0.04      0.17   1476.00
      0.04      0.18   1476.50
      0.04      0.19   1477.00
      0.04      0.20   1477.50
      0.04      0.21   1478.00
      0.05      0.22   1478.50
      0.05      0.23   1479.00
      0.05      0.24   1479.50
      0.05      0.24   1480.00
      0.05      0.25   1480.50
      0.06      0.26   1481.00
      0.06      0.27   1481.50
      0.06      0.28   1482.00
      0.06      0.29   1482.50
      0.06      0.30   1483.00
      0.07      0.31   1483.50
      0.07      0.31   1484.00
      0.07      0.32   1484.50
      0.07      0.33   1485.00
      0.07      0.34   1485.50
      0.07      0.35   1486.00
      0.08      0.36   1486.50
      0.08      0.37   1487.00
      0.08      0.38   1487.50
      0.08      0.38   1488.00
      0.08      0.39   1488.50
      0.09      0.40   1489.00
      0.09      0.41   1489.50
      0.09      0.42   1490.00
      0.09      0.43   1490.50
      0.09      0.44   1491.00
      0.10      0.45   1491.50
      0.10      0.45   1492.00
      0.10      0.46   1492.50
      0.10      0.47   1493.00
      0.10      0.48   1493.50
      0.10      0.49   1494.00
      0.11      0.50   1494.50
      0.11      0.51   1495.00
      0.11      0.52   1495.50
      0.11      0.52   1496.00
      0.11      0.53   1496.50
      0.12      0.54   1497.00
      0.12      0.55   1497.50
      0.12      0.56   1498.00
      0.12      0.57   1498.50
      0.12      0.58   1499.00
      0.12      0.58   1499.50
      0.13      0.59   1500.00
      0.13      0.60   1500.50
      0.13      0.61   1501.00
      0.13      0.62   1501.50
      0.13      0.63   1502.00
      0.14      0.64   1502.50
      0.14      0.65   1503.00
      0.14      0.65   1503.50
      0.14      0.66   1504.00
      0.14      0.67   1504.50
      0.15      0.68   1505.00
      0.15      0.69   1505.50
      0.15      0.70   1506.00
      0.15      0.71   1506.50
      0.15      0.72   1507.00
      0.15      0.72   1507.50
      0.16      0.73   1508.00
      0.16      0.74   1508.50
      0.16      0.75   1509.00
      0.16      0.76   1509.50
      0.16      0.77   1510.00
      0.17      0.78   1510.50
      0.17      0.79   1511.00
      0.17      0.79   1511.50
      0.17      0.80   1512.00
      0.17      0.81   1512.50
      0.18      0.82   1513.00
      0.18      0.83   1513.50
      0.18      0.84   1514.00
      0.18      0.85   1514.50
      0.18      0.86   1515.00
      0.18      0.86   1515.50
      0.19      0.87   1516.00
      0.19      0.88   1516.50
      0.19      0.89   1517.00
      0.19      0.90   1517.50
      0.19      0.91   1518.00
      0.20      0.92   1518.50
      0.20      0.93   1519.00
      0.20      0.93   1519.50
      0.20      0.94   1520.00
      0.20      0.95   1520.50
      0.21      0.96   1521.00
      0.21      0.97   1521.50
      0.21      0.98   1522.00
      0.21      0.99   1522.50
      0.21      1.00   1523.00
      0.21      1.00   1523.50
      0.22      1.01   1524.00
      0.22      1.02   1524.50
      0.22      1.03   1525.00
      0.22      1.04   1525.50
      0.22      1.05   1526.00
      0.23      1.06   1526.50
      0.23      1.07   1527.00
      0.23      1.07   1527.50
      0.23      1.08   1528.00
      0.23      1.09   1528.50
      0.24      1.10   1529.00
      0.24      1.11   1529.50
      0.24      1.12   1530.00
      0.24      1.13   1530.50
      0.24      1.14   1531.00
      0.24      1.14   1531.50
      0.25      1.15   1532.00
      0.25      1.16   1532.50
      0.25      1.17   1533.00
      0.25      1.18   1533.50
      0.25      1.19   1534.00
      0.26      1.20   1534.50
      0.26      1.20   1535.00
      0.26      1.21   1535.50
      0.26      1.22   1536.00
      0.26      1.23   1536.50
      0.26      1.24   1537.00
      0.27      1.25   1537.50
      0.27      1.26   1538.00
      0.27      1.27   1538.50
      0.27      1.27   1539.00
      0.27      1.28   1539.50
      0.28      1.29   1540.00
      0.28      1.30   1540.50
      0.28      1.31   1541.00
      0.28      1.32   1541.50
      0.28      1.33   1542.00
      0.29      1.34   1542.50
      0.29      1.34   1543.00
      0.29      1.35   1543.50
      0.29      1.36   1544.00
      0.29      1.37   1544.50
      0.29      1.38   1545.00
      0.30      1.39   1545.50
      0.30      1.40   1546.00
      0.30      1.41   1546.50
      0.30      1.41   1547.00
      0.30      1.42   1547.50
      0.31      1.43   1548.00
      0.31      1.44   1548.50
      0.31      1.45   1549.00
      0.31      1.46   1549.50
      0.31      1.47   1550.00
      0.32      1.48   1550.50
      0.32      1.48   1551.00
      0.32      1.49   1551.50
      0.32      1.50   1552.00
      0.32      1.51   1552.50
      0.32      1.52   1553.00
      0.33      1.53   1553.50
      0.33      1.54   1554.00
      0.33      1.55   1554.50
      0.33      1.55   1555.00
      0.33      1.56   1555.50
      0.34      1.57   1556.00
      0.34      1.58   1556.50
      0.34      1.59   1557.00
      0.34      1.60   1557.50
      0.34      1.61   1558.00
      0.35      1.62   1558.50
      0.35      1.62   1559.00
      0.35      1.63   1559.50
      0.35      1.64   1560.00
      0.35      1.65   1560.50
      0.35      1.66   1561.00
      0.36      1.67   1561.50
      0.36      1.68   1562.00
      0.36      1.69   1562.50
      0.36      1.69   1563.00
      0.36      1.70   1563.50
      0.37      1.71   1564.00
      0.37      1.72   1564.50
      0.37      1.73   1565.00
      0.37      1.74   1565.50
      0.37      1.75   1566.00
      0.38      1.75   1566.50
      0.38      1.76   1567.00
      0.38      1.77   1567.50
      0.38      1.78   1568.00
      0.38      1.79   1568.50
      0.38      1.80   1569.00
      0.39      1.81   1569.50
      0.39      1.82   1570.00
      0.39      1.82   1570.50
      0.39      1.83   1571.00
      0.39      1.84   1571.50
      0.40      1.85   1572.00
      0.40      1.86   1572.50
      0.40      1.87   1573.00
      0.40      1.88   1573.50
      0.40      1.89   1574.00
      0.40      1.89   1574.50
      0.41      1.90   1575.00
      0.41      1.91   1575.50
      0.41      1.92   1576.00
      0.41      1.93   1576.50
      0.41      1.94   1577.00
      0.42      1.95   1577.50
      0.42      1.96   1578.00
      0.42      1.96   1578.50
      0.42      1.97   1579.00
      0.42      1.98   1579.50
      0.43      1.99   1580.00
      0.43      2.00   1580.50
      0.43      2.01   1581.00
      0.43      2.02   1581.50
      0.43      2.03   1582.00
      0.43      2.03   1582.50
      0.44      2.04   1583.00
      0.44      2.05   1583.50
      0.44      2.06   1584.00
      0.44      2.07   1584.50
      0.44      2.08   1585.00
      0.45      2.09   1585.50
      0.45      2.10   1586.00
      0.45      2.10   1586.50
      0.45      2.11   1587.00
      0.45      2.12   1587.50
      0.46      2.13   1588.00
      0.46      2.14   1588.50
      0.46      2.15   1589.00
      0.46      2.16   1589.50
      0.46      2.17   1590.00
      0.46      2.17   1590.50
      0.47      2.18   1591.00
      0.47      2.19   1591.50
      0.47      2.20   1592.00
      0.47      2.21   1592.50
      0.47      2.22   1593.00
      0.48      2.23   1593.50
      0.48      2.24   1594.00
      0.48      2.24   1594.50
      0.48      2.25   1595.00
      0.48      2.26   1595.50
      0.49      2.27   1596.00
      0.49      2.28   1596.50
      0.49      2.29   1597.00
      0.49      2.30   1597.50
      0.49      2.31   1598.00
      0.49      2.31   1598.50
      0.50      2.32   1599.00
      0.50      2.33   1599.50
      0.50      2.34   1600.00
      0.51      2.34   1600.50
      0.51      2.35   1601.00
      0.52      2.35   1601.50
      0.52      2.36   1602.00
      0.53      2.36   1602.50
      0.53      2.37   1603.00
      0.54      2.37   1603.50
      0.54      2.38   1604.00
      0.55      2.38   1604.50
      0.55      2.39   1605.00
      0.56      2.39   1605.50
      0.57      2.39   1606.00
      0.57      2.40   1606.50
      0.58      2.40   1607.00
      0.58      2.41   1607.50
      0.59      2.41   1608.00
      0.59      2.42   1608.50
      0.60      2.42   1609.00
      0.60      2.43   1609.50
      0.61      2.43   1610.00
      0.61      2.44   1610.50
      0.62      2.44   1611.00
      0.63      2.45   1611.50
      0.63      2.45   1612.00
      0.64      2.45   1612.50
      0.64      2.46   1613.00
      0.65      2.46   1613.50
      0.65      2.47   1614.00
      0.66      2.47   1614.50
      0.66      2.48   1615.00
      0.67      2.48   1615.50
      0.67      2.49   1616.00
      0.68      2.49   1616.50
      0.69      2.50   1617.00
      0.69      2.50   1617.50
      0.70      2.50   1618.00
      0.70      2.51   1618.50
      0.71      2.51   1619.00
      0.71      2.52   1619.50
      0.72      2.52   1620.00
      0.72      2.53   1620.50
      0.73      2.53   1621.00
      0.73      2.54   1621.50
      0.74      2.54   1622.00
      0.75      2.55   1622.50
      0.75      2.55   1623.00
      0.76      2.56   1623.50
      0.76      2.56   1624.00
      0.77      2.56   1624.50
      0.77      2.57   1625.00
      0.78      2.57   1625.50
      0.78      2.58   1626.00
      0.79      2.58   1626.50
      0.79      2.59   1627.00
      0.80      2.59   1627.50
      0.81      2.60   1628.00
      0.81      2.60   1628.50
      0.82      2.61   1629.00
      0.82      2.61   1629.50
[...]
POINT_DATA 16267
SCALARS volume float
LOOKUP_TABLE default
      8.20
      8.00
      7.50
      6.90
      6.20
      5.40
      4.80
      4.50
      4.30
      4.20
      4.20
      4.20
      4.10
      4.00
      4.00
      3.90
      3.80
      3.70
      3.60
      3.40
      3.20
      3.20
      3.20
      3.20
      3.40
      3.40
      3.50
      3.40
      3.40
      3.40
      3.60
      3.70
      3.70
      3.80
      4.00
      4.20
      4.50
      4.50
      4.50
      4.60
      4.70
      4.90
      5.40
      6.00
      6.60
      6.90
      6.90
      6.80
      6.60
      6.10
      5.80
      5.30
      5.00
      4.80
      4.90
      5.00
      5.10
      5.10
      4.90
      4.80
      4.40
      4.30
      4.30
      4.10
      4.10
      4.10
      4.10
      4.00
      3.90
      3.80
      3.80
      3.70
      3.60
      3.50
      3.40
      3.30
      3.30
      3.20
      3.10
      3.10
      3.20
      3.20
      3.20
      3.20
      3.20
      3.20
      3.20
      3.20
      3.50
      3.60
      4.00
      4.40
      4.60
      4.70
      4.40
      4.00
      3.70
      3.50
      3.50
      3.50
      3.50
      3.60
      3.50
      3.50
      3.50
      3.60
      3.70
      3.80
      3.60
      3.40
      3.20
      3.00
      2.90
      2.80
      2.70
      2.70
      2.70
      2.80
      3.00
      3.10
      3.30
      3.50
      3.50
      3.40
      3.30
      3.10
      3.00
      3.00
      3.00
      3.00
      3.30
      3.60
      3.90
      4.10
      4.10
      4.10
      4.00
      3.90
      3.90
      3.90
      3.90
      3.80
      3.90
      4.20
      4.50
      4.90
      5.40
      5.70
      6.20
      6.70
      7.00
      7.50
      7.60
      8.00
      8.30
      8.60
      8.90
      9.10
      9.40
      9.50
      9.80
     10.30
     10.70
     11.20
     11.70
     12.20
     12.50
     12.70
     13.00
     12.80
     12.60
     12.10
     11.40
     10.90
     10.60
     10.40
     10.40
     10.20
     10.40
     10.50
     10.50
     10.50
     10.70
     10.60
     10.50
     10.50
     10.50
     10.50
     10.20
      9.90
      9.10
      8.00
      7.00
      5.90
      4.90
      4.00
      3.40
      3.00
      2.80
      2.50
      2.50
      2.30
      2.40
      2.30
      2.30
      2.10
      2.30
      2.10
      2.10
      2.00
      2.00
      2.00
      2.00
      2.10
      2.00
      2.10
      2.00
      2.00
      2.10
      2.20
      2.20
      2.20
      2.30
      2.30
      2.30
      2.40
      2.40
      2.50
      2.50
      2.40
      2.30
      2.10
      2.20
      2.40
      2.70
      2.70
      2.90
      3.20
      3.30
      3.30
      3.30
      3.00
      2.90
      2.90
      2.90
      3.10
      3.20
      3.40
      3.70
      4.00
      4.50
      4.90
      5.00
      5.00
      4.90
      4.80
      4.70
      4.80
      5.10
      5.40
      5.90
      6.10
      6.50
      7.00
      7.30
      7.60
      7.80
      7.80
      8.00
      8.10
      8.30
      8.50
      8.80
      9.00
      9.10
      9.40
      9.80
     10.10
     10.30
     10.20
     10.10
      9.80
      9.20
      8.30
      7.30
      6.30
      5.40
      4.80
      4.50
      4.30
      4.10
      4.20
      4.60
      4.70
      4.50
      4.20
      3.80
      3.60
      3.60
      3.70
      3.60
      4.00
      4.40
      4.90
      5.20
      5.50
      5.70
      5.60
      5.00
      4.10
      3.60
      3.10
      2.80
      2.70
      2.60
      2.50
      2.60
      2.80
      3.20
      3.50
      3.40
      3.30
      3.10
      2.80
      2.70
      2.50
      2.50
      2.50
      2.50
      2.50
      2.50
      2.70
      3.00
      3.30
      3.60
      3.70
      3.70
      3.50
      3.40
      3.40
      3.40
      3.50
      3.70
      4.00
      4.10
      4.20
      4.30
      4.40
      4.70
      4.90
      5.10
      5.00
      4.70
      4.20
      3.90
      3.50
      3.20
      3.10
      2.70
      2.60
      2.70
      2.60
      2.70
      2.80
      2.70
      2.60
      2.70
      2.80
      2.70
      2.60
      2.60
      2.60
      2.50
      2.40
      2.40
      2.40
      2.30
      2.30
      2.20
      2.10
      2.00
      2.00
      1.80
      1.80
      1.70
      1.70
      1.70
      1.60
      1.50
      1.60
      1.50
      1.70
      1.70
      1.70
      1.80
      1.90
      2.20
      2.30
      2.30
      2.60
      2.80
      3.10
      3.40
      3.80
      4.30
      4.80
      5.10
      5.60
      5.90
      6.20
      6.60
      6.70
      6.90
      6.90
      6.70
      6.60
      6.20
      5.70
      5.10
      4.30
      3.70
      3.40
      3.10
      2.80
      2.70
      2.60
      2.60
      2.60
      2.50
      2.60
      2.60
      2.50
      2.50
      2.40
      2.50
      2.80
      2.90
      3.00
      3.10
      3.00
      3.10
      2.90
      3.00
      3.00
      2.80
      2.70
      2.70
      2.70
      2.60
      2.60
      2.40
      2.50
      2.40
      2.40
      2.40
      2.40
      2.40
      2.40
      2.50
      2.70
      2.80
      2.80
      2.90
      3.10
      3.20
      3.40
      3.40
      3.80
      4.30
      5.20
      6.00
      6.70
      7.60
      8.10
      9.50
     10.70
     11.60
     12.30
     12.80
     12.90
     13.00
     13.00
     13.20
     13.30
     13.40
     13.40
     13.30
     13.30
     13.00
     12.60
     12.10
     11.60
     11.20
     10.80
     10.20
      9.80
      9.40
      9.40
      9.30
      9.30
      8.90
      8.20
      7.60
      6.90
      6.10
      5.50
      5.10
      4.50
      4.30
      3.90
      3.70
      3.50
      3.20
      3.20
      3.10
      3.00
      3.10
      3.40
      4.00
      4.90
      5.50
      5.50
      5.00
      4.40
      3.80
      3.70
      3.80
      4.00
      4.60
      5.20
      5.20
      4.90
      4.10
      4.00
      3.50
      3.50
      3.40
      3.40
      3.60
      3.90
      4.20
      4.30
      4.20
      4.20
      4.40
      4.50
      4.70
      5.00
      5.50
      5.70
      5.50
      5.40
      5.20
      4.90
      4.80
      4.60
      4.30
      4.10
      3.80
      3.50
      3.50
      3.40
      3.80
      4.20
      4.70
      5.40
      6.00
      6.70
      7.50
      8.30
      8.50
      8.40
      8.30
      8.00
      7.80
      7.50
      7.10
      6.80
      6.50
      6.00
      5.60
      5.20
      4.90
      4.60
      4.40
      4.20
      4.00
      3.80
      3.70
      3.80
      3.80
      3.90
      4.10
      4.10
      4.00
      4.10
      4.00
      3.80
      3.80
      3.50
      3.50
      3.30
      3.30
      3.00
      3.00
      2.80
      2.70
      2.70
      2.60
      2.50
      2.40
      2.40
      2.50
      2.60
      2.60
      2.70
      2.80
      3.10
      3.20
      3.20
      3.20
      3.20
      3.10
      3.00
      3.10
      3.20
      3.30
      3.60
      3.80
      4.10
      4.30
      4.60
      4.90
      4.90
      5.40
      5.70
      6.00
      6.20
      6.50
      6.60
      6.90
      7.10
      7.20
      7.40
      7.30
      7.10
      7.00
      7.00
      6.70
      6.50
      6.20
      5.90
      5.60
      5.40
      5.10
      5.10
      5.40
      5.60
      6.10
      6.50
      6.80
      7.10
      7.30
      7.50
      7.50
      7.60
      8.00
      8.00
      8.00
      8.00
      8.00
      7.70
      7.10
      6.70
      6.30
      5.80
      5.30
      4.90
      4.60
      4.10
      3.80
      3.40
      3.30
      3.00
      2.60
      2.50
      2.50
      2.70
      3.10
      3.60
      4.00
      4.50
      4.90
      5.20
      5.40
      5.60
      5.80
      5.90
      5.90
      6.10
      6.10
      6.40
      6.70
      6.90
      7.00
      7.30
      7.30
      7.50
      7.40
      7.50
      7.30
      7.30
      6.90
      6.60
      6.10
      5.60
      5.10
      4.70
      4.30
      4.40
      4.80
      5.20
      5.70
      6.40
      6.90
      7.20
      7.30
      7.30
      7.00
      6.40
      6.10
      6.00
      6.20
      6.50
      7.10
      7.40
      7.60
      7.60
      7.20
      6.20
      5.90
      5.60
      5.60
      5.40
      5.30
      5.10
      4.60
      4.10
      3.50
      3.10
      3.10
      3.20
      3.60
      4.10
      4.60
      5.10
      5.70
      6.00
      6.00
      5.80
      5.60
      5.30
      4.90
      4.70
      4.60
      4.40
      4.30
      4.20
      3.80
      3.60
      3.30
      3.30
      3.40
      3.70
      3.80
      4.10
      4.60
      5.20
      5.80
      6.30
      6.50
      6.30
      6.00
      5.60
      4.90
      4.80
      4.60
      4.50
      4.50
      4.50
      4.30
      4.10
      3.90
      4.00
      4.20
      4.60
      5.00
      5.30
      5.60
      5.80
      6.00
      6.00
      5.40
      4.50
      3.80
      3.30
      3.10
      3.10
      3.30
      3.30
      3.40
      3.40
      3.40
      3.40
      3.30
      3.50
      3.80
      4.10
      4.60
      5.20
      5.90
      6.40
      6.80
      7.40
      7.80
      8.00
      8.20
      8.20
      8.10
      8.00
      7.70
      7.10
      6.10
      5.00
      4.10
      3.50
      2.70
      2.40
      2.10
      1.80
      1.60
      1.40
      1.30
      1.30
      1.30
      1.30
      1.40
      1.40
      1.60
      1.60
      1.60
      1.70
      1.70
      1.90
      2.20
      2.30
      2.80
      3.30
      3.70
      4.10
      4.40
      4.70
      4.90
      5.00
      5.10
      4.90
      4.60
      4.40
      4.50
      4.90
      5.00
      5.20
      5.40
      5.30
      5.30
      5.10
      4.90
      4.70
      4.50
      4.40
      4.60
      5.10
      5.70
      6.70
      8.00
      8.90
      9.60
      9.90
      9.90
      9.80
      9.50
      8.60
      7.30
      6.40
      5.60
      5.20
      5.00
      4.70
      4.60
      4.50
      4.40
      4.20
      4.10
      4.40
      4.80
      5.30
      5.60
      5.80
      6.10
      6.40
      6.50
      6.60
      6.80
      6.90
      7.00
      7.10
      7.10
      7.30
      7.10
      7.10
      6.80
      6.40
      6.00
      5.70
      5.50
      5.30
      5.30
      5.50
      5.60
      5.50
      5.20
      5.20
      5.20
      5.00
      4.90
      4.90
      4.80
      4.40
      4.10
      3.80
      3.70
      3.60
      3.90
      4.30
      4.90
      5.20
      5.20
      4.90
      4.40
      3.90
      3.60
      3.40
      3.20
      3.40
      3.50
      3.60
      3.90
      4.00
      4.40
      4.70
      5.20
      5.50
      5.80
      6.30
      6.50
      6.70
      7.10
      7.40
      7.70
      7.90
      8.00
      8.00
      8.00
      8.00
      7.80
      7.70
      7.60
      7.40
      7.30
      7.00
      6.70
      6.10
      5.50
      4.90
      4.40
      4.20
      3.70
      3.50
      3.10
      2.90
      2.40
      2.40
      2.30
      2.30
      2.00
      2.00
      2.00
      2.10
      2.00
      2.00
      2.10
      2.00
      2.00
      2.10
      2.10
      2.00
      2.10
      2.10
      2.20
      2.30
      2.50
      2.80
      3.10
      3.50
      4.10
      4.60
      5.60
      6.30
      6.80
      6.90
      6.80
      6.40
      5.90
      5.20
      4.60
      4.10
      3.70
      3.40
      3.20
      3.20
      3.30
      3.20
      3.20
      3.30
      3.30
      3.40
      3.50
      4.00
      4.70
      5.80
      6.60
      7.40
      7.80
      8.00
      8.00
      7.70
      7.40
      7.20
      6.90
      6.80
      6.50
      6.20
      6.10
      5.90
      5.70
      5.30
      4.80
      4.50
      4.00
      3.70
      3.40
      3.00
      2.70
      2.60
      2.40
      2.30
      2.20
      2.10
      2.10
      2.10
      2.10
      2.20
      2.30
      2.60
      3.10
      3.80
      4.30
      4.60
      4.60
      4.40
      4.10
      3.70
      3.30
      3.00
      2.70
      2.50
      2.30
      2.20
      2.10
      2.00
      2.00
      2.10
      2.10
      2.10
      2.30
      2.30
      2.30
      2.40
      2.40
      2.60
      2.60
      3.20
      4.00
      4.80
      5.70
      6.30
      6.70
      7.00
      7.30
      7.60
      7.60
      7.40
      6.90
      6.30
      5.70
      5.10
      4.60
      4.30
      4.20
      4.00
      4.00
      4.10
      4.50
      4.90
      5.20
      5.70
      6.20
      6.80
      7.20
      7.40
      6.90
      6.20
      5.00
      4.10
      3.30
      3.20
      3.00
      3.00
      3.00
      2.70
      2.50
      2.20
      2.20
      2.30
      2.40
      2.40
      2.40
      2.50
      2.60
      2.60
      2.70
      2.70
      2.70
      2.60
      2.50
      2.40
      2.30
      2.30
      2.30
      2.40
      2.60
      2.60
      2.60
      2.70
      3.00
      3.00
      3.20
      3.20
      3.30
      3.00
      2.70
      2.60
      2.60
      2.60
      2.80
      3.10
      3.60
      4.00
      4.60
      5.10
      5.40
      5.70
      5.70
      5.90
      6.00
      6.10
      6.20
      6.30
      6.20
      6.00
      5.90
      5.60
      5.20
      4.60
      4.10
      3.60
      3.10
      2.80
      2.50
      2.40
      2.60
      2.90
      2.90
      3.40
      3.70
      4.00
      4.50
      4.80
      5.10
      5.30
      5.20
      5.20
      5.00
      4.90
      4.80
      4.50
      4.10
      3.50
      3.10
      2.80
      2.50
      2.50
      2.70
      3.10
      3.50
      4.00
      4.60
      5.10
      5.50
      6.10
      6.50
      6.70
      6.60
      6.60
      6.30
      6.30
      6.00
      5.50
      5.50
      5.10
      4.60
      4.40
      4.10
      3.90
      3.70
      3.70
      3.90
      4.30
      5.20
      6.10
      6.40
      5.90
      5.30
      5.00
      4.80
      4.70
      4.70
      4.90
      5.10
      5.40
      5.70
      5.80
      5.80
      5.70
      5.70
      5.60
      5.20
      4.70
      4.30
      4.20
      4.00
      3.70
      3.40
      3.20
      3.20
      3.40
      3.80
      4.30
      4.60
      4.90
      5.10
      5.00
      4.60
      4.10
      4.00
      3.90
      3.90
      4.10
      4.30
      4.60
      5.00
      5.50
      5.90
      6.10
      6.30
      6.20
      5.80
      5.40
      5.50
      5.50
      5.40
      5.50
      5.80
      6.20
      6.60
      6.70
      7.20
      7.40
      7.20
      6.90
      6.50
      6.10
      5.80
      5.70
      5.50
      5.60
      5.90
      6.00
      6.00
      5.50
      4.90
      4.50
      4.20
      3.90
      3.70
      3.40
      3.40
      3.40
      3.40
      3.70
      4.10
      4.30
      4.40
      4.20
      3.80
      3.30
      3.10
      2.90
      2.90
      2.80
      2.70
      2.70
      2.70
      2.70
      2.70
      2.90
      2.90
      2.90
      3.00
      3.00
      3.10
      3.20
      3.60
      3.90
      4.20
      4.60
      5.10
      5.80
      6.50
      7.10
      8.20
      9.20
      9.50
      9.20
      8.60
      7.50
      6.30
      5.50
      4.90
      4.80
      4.90
      5.30
      5.90
      6.50
      7.00
      7.50
      7.80
      8.30
      8.40
      8.60
      8.90
      9.40
      9.50
      9.10
      8.50
      8.20
      7.70
      7.40
      7.20
      7.10
      7.30
      7.50
      8.10
      8.90
      9.60
      9.90
      9.80
      9.60
      9.30
      9.20
      8.90
      8.70
      8.40
      8.00
      7.40
      6.20
      5.30
      4.70
      4.40
      4.20
      4.00
      4.00
      4.10
      4.40
      4.70
      4.90
      5.10
      5.10
      5.10
      4.70
      4.40
      4.00
      3.80
      3.60
      3.50
      3.50
      3.40
      3.40
      3.30
      3.20
      3.20
      3.30
      3.50
      3.80
      4.00
      4.20
      4.20
      4.10
      4.20
      4.30
      4.20
      4.10
      4.10
      4.00
      4.10
      4.00
      4.00
      4.00
      4.00
      4.00
      3.80
      3.80
      3.80
      3.80
      3.80
      4.10
      4.30
      4.60
      5.10
      5.80
      6.40
      7.10
      7.80
      8.40
      8.80
      9.00
      9.20
      9.50
      9.60
      9.80
      9.90
     10.20
     10.60
     10.90
     11.40
     11.80
     12.20
     12.40
     12.60
     12.90
     13.00
     12.80
     12.70
     12.40
     12.10
     11.60
     10.80
      9.50
      8.00
      7.10
      5.90
      4.70
      4.20
      3.50
      3.20
      3.00
      3.10
      3.30
      3.60
      4.40
      5.80
      7.20
      8.30
      8.80
      8.50
      8.10
      8.00
      8.10
      8.20
      8.30
      8.60
      8.80
      9.10
      9.30
      9.20
      8.60
      7.90
      7.40
      7.10
      6.80
      6.50
      6.50
      6.30
      6.30
      6.30
      6.60
      6.60
      6.10
      6.00
      6.00
      6.10
      5.90
      5.50
      4.90
      4.30
      3.80
      3.50
      3.40
      3.60
      4.10
      4.70
      5.10
      5.40
      5.20
      4.80
      4.40
      4.00
      3.60
      3.30
      3.30
      3.70
      4.20
      4.60
      5.20
      5.60
      5.90
      6.40
      6.50
      6.50
      6.20
      5.80
      5.50
      5.50
      5.40
      5.40
      5.40
      5.70
      5.70
      5.70
      5.50
      5.30
      5.00
      4.80
      4.60
      4.40
      4.00
      3.70
      3.30
      3.00
      2.70
      2.70
      2.60
      2.80
      3.10
      3.60
      4.40
      6.10
      7.00
      6.50
      5.70
      5.00
      4.70
      4.30
      4.10
      4.00
      3.90
      3.80
      3.80
      3.80
      3.60
      3.50
      3.30
      3.20
      3.00
      2.90
      2.90
      3.00
      3.40
      3.80
      4.40
      5.20
      5.90
      6.10
      5.90
      5.80
      5.80
      6.10
      6.50
      7.20
      8.00
      8.70
      8.90
      9.40
      9.70
      9.80
      9.80
      9.60
      9.00
      8.00
      6.80
      5.30
      3.90
      3.50
      3.40
      3.40
      3.70
      4.20
      4.80
      5.30
      5.90
      6.50
      6.90
      7.50
      7.80
      7.90
      8.10
      8.10
      8.20
      8.10
      8.30
      8.40
      8.30
      8.40
      8.60
      8.60
      8.70
      8.60
      8.20
      7.40
      6.80
      6.30
      5.80
      5.50
      5.20
      4.80
      4.60
      4.40
      4.30
      4.10
      4.10
      4.20
      4.50
      5.10
      5.90
      6.10
      6.20
      6.50
      7.00
      7.00
      7.10
      6.90
      6.30
      5.70
      5.20
      4.40
      3.90
      3.40
      2.90
      2.80
      2.70
      2.70
      2.80
      3.10
      3.90
      4.60
      5.10
      5.50
      5.80
      6.10
      6.30
      6.20
      5.80
      5.50
      4.90
      4.50
      4.20
      4.00
      3.70
      3.60
      3.40
      3.20
      3.10
      3.10
      2.90
      2.80
      3.00
      3.20
      3.70
      4.30
      4.80
      5.10
      5.30
      5.50
      5.80
      6.40
      6.80
      7.00
      7.10
      7.10
      7.30
      8.00
      8.50
      9.80
     10.30
     10.20
      9.50
      7.90
      7.00
      6.20
      5.70
      5.90
      5.90
      6.10
      6.70
      7.10
      7.40
      7.60
      7.60
      7.40
      6.90
      6.60
      6.30
      6.00
      5.80
      5.50
      5.20
      5.00
      4.70
      4.50
      4.50
      4.30
      4.40
      4.60
      4.80
      5.10
      5.10
      5.10
      5.10
      5.60
      5.90
      6.20
      6.20
      6.20
      6.20
      6.60
      7.30
      8.00
      8.40
      8.50
      8.80
      9.40
     10.10
     11.10
     12.50
     13.10
     12.90
     12.40
     11.90
     11.30
     10.50
     10.00
      9.20
      8.70
      8.20
      7.40
      6.60
      5.10
      4.30
      3.60
      3.30
      2.80
      2.60
      2.50
      2.60
      2.60
      2.60
      2.60
      2.70
      2.70
      2.80
      3.00
      3.10