# vtk DataFile Version 3.0
vtk output
ASCII
DATASET UNSTRUCTURED_GRID
POINTS 27 float
0 0 0 0 0 1 0 0 2 
0 1 0 0 1 1 0 1 2 
0 2 0 0 2 1 0 2 2 
1 0 0 1 0 1 1 0 2 
1 1 0 1 1 1 1 1 2 
1 2 0 1 2 1 1 2 2 
2 0 0 2 0 1 2 0 2 
2 1 0 2 1 1 2 1 2 
2 2 0 2 2 1 2 2 2 

CELLS 8 72
8 0 1 3 4 9 10 12 13 
8 1 2 4 5 10 11 13 14 
8 3 4 6 7 12 13 15 16 
8 4 5 7 8 13 14 16 17 
8 9 10 12 13 18 19 21 22 
8 10 11 13 14 19 20 22 23 
8 12 13 15 16 21 22 24 25 
8 13 14 16 17 22 23 25 26 

CELL_TYPES 8
11
11
11
11
11
11
11
11

CELL_DATA 8
SCALARS scalars float
LOOKUP_TABLE default
0 0.4 0.4 0 0.4 0 0 0.4 
FIELD FieldData 3
ramp1 1 8 float
0.1 0.2 0.3 0.4 0.5 0.6 0.7 0.8 
ramp2 1 8 float
8.1 7.2 6.3 5.4 4.5 3.6 2.7 1.8 
vects 3 8 float
-1 -1 -1 -1 -1 1 -1 1 -1 
-1 1 1 1 -1 -1 1 -1 1 
1 1 -1 1 1 1 
POINT_DATA 27
SCALARS scalars float
LOOKUP_TABLE default
0.4 0.4 0.4 0.4 1 0.4 0.4 0.4 0.4 
0.4 1 0.4 1 0.4 1 0.4 1 0.4 
0.4 0.4 0.4 0.4 1 0.4 0.4 0.4 0.4 

FIELD FieldData 3
xRamp 1 27 float
0 0 0 0 0 0 0 0 0 
0.4 0.4 0.4 0.4 0.4 0.4 0.4 0.4 0.4 
0.8 0.8 0.8 0.8 0.8 0.8 0.8 0.8 0.8 

yRamp 1 27 float
0.1 0.1 0.1 0.5 0.5 0.5 0.9 0.9 0.9 
0.1 0.1 0.1 0.5 0.5 0.5 0.9 0.9 0.9 
0.1 0.1 0.1 0.5 0.5 0.5 0.9 0.9 0.9 

zRamp 1 27 float
0.2 0.6 1 0.2 0.6 1 0.2 0.6 1 
0.2 0.6 1 0.2 0.6 1 0.2 0.6 1 
0.2 0.6 1 0.2 0.6 1 0.2 0.6 1 

