/*--------------------------------*- C++ -*----------------------------------*\
| =========                 |                                                 |
| \\      /  F ield         | OpenFOAM: The Open Source CFD Toolbox           |
|  \\    /   O peration     | Version:  1.7.x                                 |
|   \\  /    A nd           | Web:      www.OpenFOAM.com                      |
|    \\/     M anipulation  |                                                 |
\*---------------------------------------------------------------------------*/
FoamFile
{
    version     2.0;
    format      ascii;
    class       volScalarField;
    location    "1.5";
    object      p;
}
// * * * * * * * * * * * * * * * * * * * * * * * * * * * * * * * * * * * * * //

dimensions      [0 2 -2 0 0 0 0];

internalField   nonuniform List<scalar> 
400
(
3.75216e-06
-0.00582361
-0.0129615
-0.018414
-0.0204317
-0.0182381
-0.0117736
-0.00148341
0.0118378
0.0271497
0.0432451
0.0588239
0.0725796
0.0833095
0.0900538
0.0922679
0.0900268
0.0842448
0.0768816
0.0710681
0.00578246
-0.000216798
-0.0058028
-0.00954161
-0.0105982
-0.0084321
-0.00296945
0.00547454
0.0163033
0.0287122
0.0417504
0.0543867
0.0655873
0.0744109
0.0801212
0.0823167
0.0810781
0.0770557
0.0712749
0.0653187
0.0133367
0.00503503
-0.000994191
-0.00442217
-0.00527212
-0.00326325
0.00160292
0.00902805
0.0185025
0.0293497
0.040766
0.0518703
0.0617693
0.0696373
0.0748079
0.076879
0.0758424
0.0720866
0.0658062
0.0575361
0.020141
0.0086973
0.00122698
-0.0026676
-0.00372132
-0.00188461
0.00273189
0.00978509
0.0187808
0.0290954
0.0399924
0.0506546
0.0602336
0.0679168
0.073004
0.0750023
0.0737666
0.0694567
0.0616035
0.050103
0.0245036
0.00977448
0.000590936
-0.00398594
-0.00530141
-0.00350663
0.00117537
0.00833513
0.0174625
0.0279495
0.0390854
0.0500704
0.0600494
0.0681657
0.0736271
0.0757985
0.0743697
0.0692904
0.059526
0.0445375
0.0251794
0.00715141
-0.00380081
-0.00905616
-0.0105113
-0.00849923
-0.00335615
0.00443004
0.0143139
0.0256795
0.0378143
0.0499037
0.0610486
0.0703036
0.0767352
0.0795175
0.0781395
0.0723341
0.0605397
0.0418904
0.0210949
-0.000261055
-0.0129333
-0.0187082
-0.0200289
-0.0174131
-0.0113177
-0.00231904
0.00899104
0.0219768
0.0359102
0.0499449
0.0631126
0.0743458
0.0825224
0.08657
0.0857213
0.0794477
0.0656209
0.0430721
0.011144
-0.013617
-0.0278739
-0.0338531
-0.0346025
-0.0308566
-0.0232121
-0.0123445
0.0011055
0.0164845
0.0330532
0.0499342
0.0660839
0.0802904
0.0912012
0.0974306
0.0978708
0.0916366
0.0758968
0.049117
-0.00596608
-0.0342654
-0.049869
-0.0555475
-0.0550891
-0.0495136
-0.0395926
-0.0261126
-0.00975642
0.00882366
0.0289016
0.0495941
0.0697981
0.0881552
0.103048
0.112702
0.115551
0.110192
0.0928349
0.061412
-0.0318562
-0.0638752
-0.080416
-0.0850062
-0.0824191
-0.0740773
-0.0609799
-0.0440358
-0.0239508
-0.0013362
0.0231463
0.0486617
0.0740963
0.097973
0.118397
0.133126
0.139989
0.136819
0.118441
0.0819345
-0.0686664
-0.104602
-0.121344
-0.123589
-0.117514
-0.105126
-0.0877172
-0.0663246
-0.0416361
-0.0141548
0.0156063
0.046954
0.0788565
0.109794
0.137625
0.159586
0.172728
0.173779
0.155521
0.113572
-0.119401
-0.159356
-0.174914
-0.172756
-0.161147
-0.142928
-0.119758
-0.0927759
-0.0625764
-0.0294467
0.00637403
0.0444744
0.084056
0.123704
0.161137
0.193087
0.215669
0.224078
0.208052
0.160634
-0.188627
-0.232241
-0.243937
-0.233947
-0.213693
-0.187153
-0.156371
-0.1225
-0.0858966
-0.0464709
-0.00401329
0.04154
0.0898433
0.13983
0.18932
0.23469
0.271076
0.291666
0.281744
0.229777
-0.283973
-0.329303
-0.33183
-0.308278
-0.274707
-0.236438
-0.195763
-0.153608
-0.109838
-0.0637436
-0.0144363
0.038865
0.0965558
0.158278
0.222376
0.285289
0.341399
0.381577
0.384916
0.331836
-0.419317
-0.459669
-0.442348
-0.39579
-0.342127
-0.287737
-0.234614
-0.182928
-0.131607
-0.0789829
-0.0232119
0.0374774
0.104555
0.17884
0.259863
0.344972
0.428618
0.499702
0.529677
0.485393
-0.620529
-0.636741
-0.578675
-0.49419
-0.411238
-0.335656
-0.267778
-0.205975
-0.147534
-0.0893804
-0.0284235
0.0383509
0.113809
0.200474
0.299978
0.412028
0.533032
0.651778
0.732774
0.722398
-0.935921
-0.878512
-0.741739
-0.597945
-0.47439
-0.372656
-0.288865
-0.21776
-0.15395
-0.0924609
-0.0287144
0.0416986
0.123266
0.220721
0.338929
0.482158
0.652
0.841345
1.01527
1.09751
-1.47642
-1.20663
-0.9205
-0.691385
-0.517302
-0.38754
-0.290058
-0.213334
-0.148121
-0.0872123
-0.0245745
0.0454606
0.128941
0.233074
0.367106
0.542681
0.771296
1.05932
1.40329
1.73014
-2.53965
-1.63054
-1.04443
-0.710955
-0.495747
-0.35209
-0.254527
-0.18358
-0.126166
-0.0735919
-0.0192659
0.04279
0.119215
0.218786
0.354815
0.547987
0.826396
1.23658
1.91168
2.9242
-4.36666
-2.04463
-0.973539
-0.563177
-0.357843
-0.240143
-0.170116
-0.12378
-0.0874779
-0.053507
-0.0166513
0.0276637
0.0846105
0.161733
0.272414
0.442102
0.718222
1.22571
2.41104
4.84853
)
;

boundaryField
{
    movingWall
    {
        type            zeroGradient;
    }
    fixedWalls
    {
        type            zeroGradient;
    }
    frontAndBack
    {
        type            empty;
    }
}


// ************************************************************************* //
