/*--------------------------------*- C++ -*----------------------------------*\
| =========                 |                                                 |
| \\      /  F ield         | OpenFOAM: The Open Source CFD Toolbox           |
|  \\    /   O peration     | Version:  1.7.x                                 |
|   \\  /    A nd           | Web:      www.OpenFOAM.com                      |
|    \\/     M anipulation  |                                                 |
\*---------------------------------------------------------------------------*/
FoamFile
{
    version     2.0;
    format      ascii;
    class       volScalarField;
    location    "1";
    object      p;
}
// * * * * * * * * * * * * * * * * * * * * * * * * * * * * * * * * * * * * * //

dimensions      [0 2 -2 0 0 0 0];

internalField   nonuniform List<scalar> 
400
(
4.73068e-06
-0.00582196
-0.0129598
-0.0184122
-0.0204298
-0.0182362
-0.0117717
-0.0014815
0.0118396
0.0271515
0.0432469
0.0588257
0.0725815
0.0833114
0.0900557
0.0922699
0.0900286
0.0842466
0.0768833
0.0710697
0.00578413
-0.000215009
-0.005801
-0.00953983
-0.0105964
-0.00843028
-0.00296757
0.00547647
0.0163052
0.0287141
0.0417522
0.0543885
0.0655891
0.0744127
0.0801231
0.0823186
0.0810801
0.0770575
0.0712767
0.0653204
0.0133385
0.00503687
-0.000992336
-0.00442035
-0.00527035
-0.00326149
0.00160472
0.00902994
0.0185044
0.0293516
0.0407678
0.0518721
0.0617711
0.069639
0.0748098
0.0768808
0.0758444
0.0720886
0.065808
0.0575379
0.0201428
0.00869915
0.00122887
-0.00266571
-0.00371949
-0.00188286
0.00273363
0.00978689
0.0187827
0.0290974
0.0399944
0.0506565
0.0602354
0.0679185
0.0730058
0.0750041
0.0737684
0.0694587
0.0616054
0.0501049
0.0245054
0.0097763
0.00059282
-0.00398401
-0.00529951
-0.0035048
0.00117711
0.00833686
0.0174643
0.0279514
0.0390874
0.0500724
0.0600513
0.0681675
0.0736288
0.0758002
0.0743715
0.0692923
0.059528
0.0445394
0.0251812
0.00715319
-0.00379898
-0.00905425
-0.0105093
-0.00849731
-0.00335433
0.00443177
0.0143156
0.0256813
0.0378162
0.0499057
0.0610505
0.0703056
0.076737
0.0795193
0.0781413
0.0723359
0.0605416
0.0418923
0.0210967
-0.00025928
-0.0129315
-0.0187064
-0.0200269
-0.0174111
-0.0113157
-0.00231723
0.00899277
0.0219785
0.035912
0.0499467
0.0631146
0.0743477
0.0825243
0.0865719
0.0857231
0.0794494
0.0656227
0.043074
0.011146
-0.0136152
-0.0278721
-0.0338514
-0.0346006
-0.0308546
-0.0232101
-0.0123426
0.00110732
0.0164862
0.0330549
0.049936
0.0660858
0.0802924
0.0912032
0.0974325
0.0978727
0.0916384
0.0758986
0.0491188
-0.00596412
-0.0342635
-0.0498672
-0.0555458
-0.0550873
-0.0495117
-0.0395907
-0.0261106
-0.00975448
0.00882549
0.0289034
0.0495959
0.0697999
0.088157
0.10305
0.112704
0.115553
0.110194
0.0928367
0.0614138
-0.0318542
-0.0638732
-0.0804141
-0.0850044
-0.0824174
-0.0740756
-0.0609781
-0.0440338
-0.0239488
-0.00133425
0.0231481
0.0486635
0.0740981
0.0979747
0.118399
0.133128
0.139991
0.136821
0.118443
0.0819363
-0.0686645
-0.104601
-0.121342
-0.123587
-0.117513
-0.105124
-0.0877155
-0.0663227
-0.0416342
-0.0141528
0.0156083
0.0469558
0.0788583
0.109796
0.137626
0.159588
0.17273
0.173781
0.155523
0.113573
-0.1194
-0.159354
-0.174912
-0.172754
-0.161145
-0.142926
-0.119756
-0.0927742
-0.0625746
-0.0294448
0.00637599
0.0444763
0.0840579
0.123706
0.161139
0.193089
0.215671
0.22408
0.208053
0.160635
-0.188625
-0.232239
-0.243936
-0.233945
-0.213691
-0.187151
-0.156369
-0.122498
-0.0858949
-0.0464691
-0.00401139
0.0415419
0.0898452
0.139832
0.189322
0.234692
0.271078
0.291667
0.281746
0.229779
-0.283971
-0.329301
-0.331828
-0.308277
-0.274705
-0.236436
-0.195761
-0.153607
-0.109837
-0.0637418
-0.0144345
0.0388668
0.0965577
0.15828
0.222378
0.285291
0.341401
0.381578
0.384917
0.331837
-0.419315
-0.459667
-0.442347
-0.395788
-0.342125
-0.287735
-0.234612
-0.182926
-0.131605
-0.0789811
-0.0232102
0.0374791
0.104557
0.178842
0.259865
0.344974
0.42862
0.499704
0.529679
0.485395
-0.620528
-0.63674
-0.578673
-0.494189
-0.411236
-0.335654
-0.267776
-0.205973
-0.147532
-0.0893785
-0.0284217
0.0383527
0.113811
0.200476
0.299979
0.412029
0.533034
0.651779
0.732776
0.7224
-0.935919
-0.87851
-0.741737
-0.597944
-0.474388
-0.372654
-0.288863
-0.217758
-0.153948
-0.092459
-0.0287125
0.0417005
0.123268
0.220723
0.338931
0.482159
0.652001
0.841346
1.01528
1.09751
-1.47642
-1.20663
-0.920498
-0.691383
-0.5173
-0.387539
-0.290056
-0.213332
-0.148119
-0.0872104
-0.0245726
0.0454625
0.128942
0.233076
0.367108
0.542683
0.771298
1.05932
1.40329
1.73015
-2.53964
-1.63054
-1.04443
-0.710953
-0.495745
-0.352088
-0.254525
-0.183578
-0.126164
-0.07359
-0.019264
0.0427919
0.119217
0.218788
0.354817
0.547989
0.826398
1.23659
1.91168
2.9242
-4.36666
-2.04463
-0.973537
-0.563175
-0.357841
-0.240141
-0.170114
-0.123778
-0.0874761
-0.0535052
-0.0166495
0.0276656
0.0846123
0.161734
0.272416
0.442104
0.718224
1.22571
2.41104
4.84854
)
;

boundaryField
{
    movingWall
    {
        type            zeroGradient;
    }
    fixedWalls
    {
        type            zeroGradient;
    }
    frontAndBack
    {
        type            empty;
    }
}


// ************************************************************************* //
