/*--------------------------------*- C++ -*----------------------------------*\
| =========                 |                                                 |
| \\      /  F ield         | OpenFOAM: The Open Source CFD Toolbox           |
|  \\    /   O peration     | Version:  1.7.x                                 |
|   \\  /    A nd           | Web:      www.OpenFOAM.com                      |
|    \\/     M anipulation  |                                                 |
\*---------------------------------------------------------------------------*/
FoamFile
{
    version     2.0;
    format      ascii;
    class       surfaceScalarField;
    location    "1";
    object      phi;
}
// * * * * * * * * * * * * * * * * * * * * * * * * * * * * * * * * * * * * * //

dimensions      [0 3 -1 0 0 0 0];

internalField   nonuniform List<scalar> 
760
(
1.42311e-08
-1.42708e-08
-2.22127e-08
3.64438e-08
-1.14278e-07
9.20651e-08
-2.45511e-07
1.31234e-07
-3.96126e-07
1.50615e-07
-5.47405e-07
1.51279e-07
-6.83239e-07
1.35834e-07
-7.90717e-07
1.07479e-07
-8.60266e-07
6.9548e-08
-8.857e-07
2.54346e-08
-8.64376e-07
-2.13239e-08
-7.97439e-07
-6.69366e-08
-6.90128e-07
-1.07311e-07
-5.52006e-07
-1.38122e-07
-3.96966e-07
-1.5504e-07
-2.42763e-07
-1.54204e-07
-1.09739e-07
-1.33024e-07
-1.84167e-08
-9.13221e-08
1.56907e-08
-3.41073e-08
1.56908e-08
-3.42191e-08
1.99484e-08
-1.8039e-07
1.82614e-07
-4.34025e-07
3.457e-07
-7.64497e-07
4.61706e-07
-1.13231e-06
5.18424e-07
-1.49737e-06
5.16341e-07
-1.82349e-06
4.61954e-07
-2.08071e-06
3.64697e-07
-2.24646e-06
2.35299e-07
-2.30623e-06
8.5202e-08
-2.25408e-06
-7.34702e-08
-2.09321e-06
-2.27804e-07
-1.8364e-06
-3.64122e-07
-1.50615e-06
-4.68369e-07
-1.13416e-06
-5.27029e-07
-7.59574e-07
-5.28793e-07
-4.25429e-07
-4.67169e-07
-1.72703e-07
-3.44047e-07
-3.08038e-08
-1.76006e-07
-1.5113e-08
-9.22362e-08
1.12185e-07
-3.57026e-07
4.47405e-07
-7.6462e-07
7.53294e-07
-1.26859e-06
9.65674e-07
-1.81484e-06
1.06468e-06
-2.34923e-06
1.05073e-06
-2.82265e-06
9.35379e-07
-3.19419e-06
7.36233e-07
-3.43287e-06
4.73982e-07
-3.51878e-06
1.71108e-07
-3.44383e-06
-1.48419e-07
-3.21249e-06
-4.59141e-07
-2.84231e-06
-7.34305e-07
-2.36397e-06
-9.4671e-07
-1.82044e-06
-1.07056e-06
-1.26457e-06
-1.08466e-06
-7.54571e-07
-9.77169e-07
-3.46993e-07
-7.51626e-07
-8.73415e-08
-4.35657e-07
-1.02455e-07
-1.45222e-07
2.57407e-07
-5.255e-07
8.27683e-07
-1.08171e-06
1.3095e-06
-1.74763e-06
1.6316e-06
-2.4545e-06
1.77155e-06
-3.13659e-06
1.73282e-06
-3.73555e-06
1.53433e-06
-4.20319e-06
1.20388e-06
-4.50322e-06
7.74012e-07
-4.61223e-06
2.80121e-07
-4.52055e-06
-2.401e-07
-4.23301e-06
-7.46688e-07
-3.7696e-06
-1.19771e-06
-3.16583e-06
-1.55048e-06
-2.47203e-06
-1.76437e-06
-1.75117e-06
-1.80551e-06
-1.07457e-06
-1.65377e-06
-5.15168e-07
-1.31103e-06
-1.39324e-07
-8.11502e-07
-2.41778e-07
-1.93622e-07
4.51029e-07
-6.85043e-07
1.3191e-06
-1.3857e-06
2.01017e-06
-2.20737e-06
2.45326e-06
-3.06565e-06
2.62982e-06
-3.884e-06
2.55118e-06
-4.59677e-06
2.2471e-06
-5.15088e-06
1.75799e-06
-5.50676e-06
1.12989e-06
-5.63884e-06
4.122e-07
-5.53606e-06
-3.42879e-07
-5.20265e-06
-1.08009e-06
-4.65912e-06
-1.74123e-06
-3.94316e-06
-2.26645e-06
-3.10986e-06
-2.59766e-06
-2.23061e-06
-2.68476e-06
-1.38971e-06
-2.49467e-06
-6.78531e-07
-2.0222e-06
-1.87777e-07
-1.30226e-06
-4.29555e-07
-2.39953e-07
6.90982e-07
-8.40391e-07
1.91954e-06
-1.68337e-06
2.85314e-06
-2.65718e-06
3.42708e-06
-3.66101e-06
3.63365e-06
-4.60799e-06
3.49815e-06
-5.42661e-06
3.06572e-06
-6.06086e-06
2.39224e-06
-6.46966e-06
1.5387e-06
-6.62636e-06
5.689e-07
-6.51862e-06
-4.50621e-07
-6.14908e-06
-1.44964e-06
-5.53678e-06
-2.35353e-06
-4.71912e-06
-3.08411e-06
-3.75362e-06
-3.56317e-06
-2.71859e-06
-3.71979e-06
-1.71161e-06
-3.50165e-06
-8.44696e-07
-2.88911e-06
-2.36189e-07
-1.91076e-06
-6.65744e-07
-2.86757e-07
9.77739e-07
-9.97125e-07
2.62991e-06
-1.98216e-06
3.83818e-06
-3.10506e-06
4.54999e-06
-4.24812e-06
4.7767e-06
-5.31502e-06
4.56506e-06
-6.23035e-06
3.98105e-06
-6.93744e-06
3.09932e-06
-7.39577e-06
1.99703e-06
-7.57891e-06
7.52039e-07
-7.47344e-06
-5.56091e-07
-7.07937e-06
-1.8437e-06
-6.41211e-06
-3.02079e-06
-5.50577e-06
-3.99044e-06
-4.41721e-06
-4.65174e-06
-3.22948e-06
-4.90752e-06
-2.05302e-06
-4.67811e-06
-1.02257e-06
-3.91956e-06
-2.88291e-07
-2.64504e-06
-9.54035e-07
-3.3634e-07
1.31408e-06
-1.1604e-06
3.45397e-06
-2.28808e-06
4.96585e-06
-3.55509e-06
5.817e-06
-4.82675e-06
6.04836e-06
-5.99923e-06
5.73754e-06
-6.99622e-06
4.97805e-06
-7.76373e-06
3.86683e-06
-8.26471e-06
2.498e-06
-8.47484e-06
9.62171e-07
-8.38018e-06
-6.50748e-07
-7.9771e-06
-2.24678e-06
-7.27476e-06
-3.72313e-06
-6.30011e-06
-4.96509e-06
-5.1048e-06
-5.84705e-06
-3.77262e-06
-6.2397e-06
-2.42494e-06
-6.02579e-06
-1.22078e-06
-5.12373e-06
-3.47716e-07
-3.5181e-06
-1.30175e-06
-3.90964e-07
1.70504e-06
-1.33491e-06
4.39791e-06
-2.60502e-06
6.23596e-06
-4.00601e-06
7.21799e-06
-5.3869e-06
7.42925e-06
-6.63986e-06
6.99049e-06
-7.69256e-06
6.03075e-06
-8.49861e-06
4.67287e-06
-9.02856e-06
3.02796e-06
-9.26307e-06
1.19668e-06
-9.1888e-06
-7.25023e-07
-8.79762e-06
-2.63796e-06
-8.08949e-06
-4.43126e-06
-7.07913e-06
-5.97546e-06
-5.80641e-06
-7.11977e-06
-4.34911e-06
-7.697e-06
-2.83485e-06
-7.54004e-06
-1.44711e-06
-6.51147e-06
-4.18105e-07
-4.54711e-06
-1.71986e-06
-4.53455e-07
2.1585e-06
-1.52569e-06
5.47015e-06
-2.9349e-06
7.64517e-06
-4.45014e-06
8.73323e-06
-5.90636e-06
8.88548e-06
-7.19786e-06
8.28199e-06
-8.26372e-06
7.09661e-06
-9.07214e-06
5.48129e-06
-9.60695e-06
3.56277e-06
-9.85767e-06
1.44741e-06
-9.8135e-06
-7.69194e-07
-9.46146e-06
-2.99001e-06
-8.78918e-06
-5.10353e-06
-7.79306e-06
-6.97157e-06
-6.49226e-06
-8.42057e-06
-4.94801e-06
-9.24126e-06
-3.28514e-06
-9.20291e-06
-1.70869e-06
-8.08792e-06
-5.03591e-07
-5.75221e-06
-2.22345e-06
-5.28332e-07
2.68683e-06
-1.73965e-06
6.68147e-06
-3.27795e-06
9.18348e-06
-4.8716e-06
1.03269e-05
-6.34698e-06
1.03609e-05
-7.61078e-06
9.5458e-06
-8.62431e-06
8.11014e-06
-9.37964e-06
6.23662e-06
-9.88094e-06
4.06408e-06
-1.01315e-05
1.69795e-06
-1.01257e-05
-7.74939e-07
-9.8463e-06
-3.26945e-06
-9.26596e-06
-5.68387e-06
-8.35631e-06
-7.88122e-06
-7.10468e-06
-9.6722e-06
-5.54069e-06
-1.08052e-05
-3.7707e-06
-1.09729e-05
-2.01217e-06
-9.84645e-06
-6.09688e-07
-7.15469e-06
-2.83313e-06
-6.23657e-07
3.31049e-06
-1.98735e-06
8.04516e-06
-3.63186e-06
1.0828e-05
-5.24185e-06
1.19369e-05
-6.64747e-06
1.17665e-05
-7.78436e-06
1.06827e-05
-8.65089e-06
8.97666e-06
-9.27417e-06
6.8599e-06
-9.68639e-06
4.47631e-06
-9.90968e-06
1.92123e-06
-9.9471e-06
-7.37514e-07
-9.77847e-06
-3.43808e-06
-9.36079e-06
-6.10155e-06
-8.63553e-06
-8.60647e-06
-7.54632e-06
-1.07614e-05
-6.07154e-06
-1.228e-05
-4.27424e-06
-1.27702e-05
-2.36364e-06
-1.17571e-05
-7.44774e-07
-8.77355e-06
-3.57791e-06
-7.54063e-07
4.06455e-06
-2.28431e-06
9.57541e-06
-3.98693e-06
1.25306e-05
-5.50898e-06
1.34589e-05
-6.70946e-06
1.2967e-05
-7.57839e-06
1.15516e-05
-8.16986e-06
9.56813e-06
-8.55742e-06
7.24746e-06
-8.80751e-06
4.7264e-06
-8.96484e-06
2.07856e-06
-9.04416e-06
-6.58186e-07
-9.02556e-06
-3.45668e-06
-8.85244e-06
-6.27468e-06
-8.43469e-06
-9.02422e-06
-7.66281e-06
-1.15333e-05
-6.44193e-06
-1.35009e-05
-4.75621e-06
-1.44559e-05
-2.76673e-06
-1.37465e-05
-9.22429e-07
-1.06178e-05
-4.50034e-06
-9.4519e-07
5.00974e-06
-2.64844e-06
1.12787e-05
-4.3109e-06
1.41931e-05
-5.57315e-06
1.47212e-05
-6.37049e-06
1.37643e-05
-6.78304e-06
1.19642e-05
-6.94022e-06
9.72531e-06
-6.96942e-06
7.27666e-06
-6.97245e-06
4.72943e-06
-7.01616e-06
2.12228e-06
-7.12828e-06
-5.46073e-07
-7.29346e-06
-3.2915e-06
-7.44837e-06
-6.11976e-06
-7.47767e-06
-8.99492e-06
-7.21777e-06
-1.17932e-05
-6.48264e-06
-1.4236e-05
-5.13336e-06
-1.58052e-05
-3.21495e-06
-1.5665e-05
-1.16438e-06
-1.26684e-05
-5.66471e-06
-1.2373e-06
6.24704e-06
-3.08324e-06
1.31246e-05
-4.5076e-06
1.56174e-05
-5.23432e-06
1.54479e-05
-5.355e-06
1.3885e-05
-5.08156e-06
1.16907e-05
-4.63057e-06
9.27433e-06
-4.1789e-06
6.82499e-06
-3.85397e-06
4.4045e-06
-3.73663e-06
2.00493e-06
-3.86474e-06
-4.17957e-07
-4.23228e-06
-2.92396e-06
-4.78177e-06
-5.57028e-06
-5.39081e-06
-8.38588e-06
-5.85829e-06
-1.13257e-05
-5.90643e-06
-1.41879e-05
-5.23273e-06
-1.64789e-05
-3.66623e-06
-1.72315e-05
-1.50007e-06
-1.48346e-05
-7.16478e-06
-1.67379e-06
7.92083e-06
-3.51332e-06
1.49641e-05
-4.3152e-06
1.64193e-05
-4.08872e-06
1.52214e-05
-3.19283e-06
1.29891e-05
-1.99846e-06
1.04963e-05
-7.94817e-07
8.07068e-06
2.19702e-07
5.81047e-06
9.18622e-07
3.70558e-06
1.226e-06
1.69755e-06
1.10245e-06
-2.94405e-07
5.41422e-07
-2.36293e-06
-4.22609e-07
-4.60625e-06
-1.6923e-06
-7.11619e-06
-3.0722e-06
-9.94581e-06
-4.23067e-06
-1.30294e-05
-4.69556e-06
-1.6014e-05
-3.96714e-06
-1.79599e-05
-1.94491e-06
-1.68568e-05
-9.10969e-06
-2.23068e-06
1.01515e-05
-3.59026e-06
1.63237e-05
-3.0777e-06
1.59068e-05
-1.34375e-06
1.34875e-05
8.97221e-07
1.07481e-05
3.15521e-06
8.23836e-06
5.13841e-06
6.08749e-06
6.68902e-06
4.25985e-06
7.72619e-06
2.66842e-06
8.20691e-06
1.21683e-06
8.10424e-06
-1.91733e-07
7.39936e-06
-1.65806e-06
6.08715e-06
-3.29404e-06
4.19943e-06
-5.22847e-06
1.85434e-06
-7.60072e-06
-6.61578e-07
-1.05135e-05
-2.79209e-06
-1.38835e-05
-3.66205e-06
-1.70899e-05
-2.41153e-06
-1.81073e-05
-1.15212e-05
-2.57381e-06
1.27253e-05
-2.18344e-06
1.59333e-05
7.18122e-07
1.30052e-05
4.46966e-06
9.73592e-06
8.13342e-06
7.08435e-06
1.13018e-05
5.07003e-06
1.38293e-05
3.55992e-06
1.56883e-05
2.40082e-06
1.68919e-05
1.46482e-06
1.74552e-05
6.5361e-07
1.73766e-05
-1.13208e-07
1.66308e-05
-9.12173e-07
1.51674e-05
-1.83069e-06
1.29237e-05
-2.98477e-06
9.8619e-06
-4.53892e-06
6.06207e-06
-6.71367e-06
1.91241e-06
-9.73383e-06
-1.55959e-06
-1.36179e-05
-2.45833e-06
-1.72086e-05
-1.39795e-05
-7.85014e-07
1.35103e-05
4.0808e-06
1.10675e-05
1.02976e-05
6.78843e-06
1.57937e-05
4.2398e-06
2.01581e-05
2.71992e-06
2.34582e-05
1.76996e-06
2.5861e-05
1.15715e-06
2.75217e-05
7.40063e-07
2.85542e-05
4.32299e-07
2.90266e-05
1.81223e-07
2.89624e-05
-4.89843e-08
2.83389e-05
-2.88705e-07
2.7082e-05
-5.73749e-07
2.50552e-05
-9.57966e-07
2.20518e-05
-1.53553e-06
1.78156e-05
-2.47743e-06
1.21724e-05
-4.09069e-06
5.47774e-06
-6.92325e-06
-1.29165e-07
-1.16017e-05
-1.41087e-05
1.35103e-05
2.45778e-05
3.13663e-05
3.56061e-05
3.8326e-05
4.0096e-05
4.12531e-05
4.19932e-05
4.24255e-05
4.26067e-05
4.25577e-05
4.2269e-05
4.16953e-05
4.07373e-05
3.92018e-05
3.67243e-05
3.26336e-05
2.57104e-05
1.41087e-05
)
;

boundaryField
{
    movingWall
    {
        type            calculated;
        value           uniform 0;
    }
    fixedWalls
    {
        type            calculated;
        value           uniform 0;
    }
    frontAndBack
    {
        type            empty;
    }
}


// ************************************************************************* //
