/*--------------------------------*- C++ -*----------------------------------*\
| =========                 |                                                 |
| \\      /  F ield         | OpenFOAM: The Open Source CFD Toolbox           |
|  \\    /   O peration     | Version:  1.7.x                                 |
|   \\  /    A nd           | Web:      www.OpenFOAM.com                      |
|    \\/     M anipulation  |                                                 |
\*---------------------------------------------------------------------------*/
FoamFile
{
    version     2.0;
    format      ascii;
    class       volVectorField;
    location    "1";
    object      U;
}
// * * * * * * * * * * * * * * * * * * * * * * * * * * * * * * * * * * * * * //

dimensions      [0 1 -1 0 0 0 0];

internalField   nonuniform List<vector> 
400
(
(0.000253392 -0.000250481 0)
(0.000141183 0.000111413 0)
(-0.00117707 0.000564627 0)
(-0.00348135 0.000885031 0)
(-0.00637791 0.00104577 0)
(-0.00947012 0.00106181 0)
(-0.0124038 0.000957905 0)
(-0.014886 0.000760484 0)
(-0.0166907 0.000494675 0)
(-0.0176596 0.000184571 0)
(-0.0177034 -0.000145281 0)
(-0.0168063 -0.000468403 0)
(-0.0150311 -0.00075547 0)
(-0.012526 -0.000974333 0)
(-0.00952702 -0.00109126 0)
(-0.00635538 -0.00107408 0)
(-0.00340083 -0.000898174 0)
(-0.00108648 -0.000556417 0)
(0.000196452 -9.03634e-05 0)
(0.000267881 0.000262407 0)
(-7.74866e-05 -0.00016943 0)
(-0.00161171 0.00164491 0)
(-0.00569336 0.00361755 0)
(-0.0117198 0.0050352 0)
(-0.0188939 0.00574367 0)
(-0.026403 0.00576066 0)
(-0.033472 0.00517209 0)
(-0.0394302 0.00409284 0)
(-0.0437478 0.00264784 0)
(-0.0460511 0.00096699 0)
(-0.0461334 -0.000813313 0)
(-0.0439651 -0.00254731 0)
(-0.0397045 -0.00407901 0)
(-0.0337055 -0.00524556 0)
(-0.0265155 -0.00588705 0)
(-0.018856 -0.00586532 0)
(-0.0115675 -0.00509514 0)
(-0.00551369 -0.00358967 0)
(-0.00149318 -0.00155922 0)
(-4.25774e-05 0.000227491 0)
(-0.00052866 0.00109168 0)
(-0.00371173 0.00573673 0)
(-0.0105899 0.0102253 0)
(-0.0199935 0.0134088 0)
(-0.0307676 0.0149475 0)
(-0.041826 0.0148401 0)
(-0.0521246 0.0132568 0)
(-0.0607497 0.0104571 0)
(-0.0669756 0.00674253 0)
(-0.0702891 0.00243902 0)
(-0.070407 -0.0021068 0)
(-0.0672904 -0.00652611 0)
(-0.0611577 -0.0104302 0)
(-0.052493 -0.0134223 0)
(-0.0420406 -0.0151248 0)
(-0.0307765 -0.0152269 0)
(-0.0198307 -0.0135571 0)
(-0.0103644 -0.0101797 0)
(-0.00354878 -0.00555145 0)
(-0.000476879 -0.000948877 0)
(-0.00092831 0.00348012 0)
(-0.005692 0.0122216 0)
(-0.0153031 0.0199233 0)
(-0.0279193 0.0251999 0)
(-0.0419891 0.0275993 0)
(-0.056184 0.0271398 0)
(-0.0692582 0.024111 0)
(-0.0801328 0.0189554 0)
(-0.087956 0.0121965 0)
(-0.0921269 0.00440532 0)
(-0.0923114 -0.00380846 0)
(-0.0884577 -0.0117977 0)
(-0.0808118 -0.0188839 0)
(-0.0699287 -0.0243784 0)
(-0.0566738 -0.0276299 0)
(-0.0421982 -0.028104 0)
(-0.0278587 -0.0254996 0)
(-0.0150948 -0.0198931 0)
(-0.00550545 -0.0119285 0)
(-0.000861665 -0.00322507 0)
(-0.00127904 0.00687836 0)
(-0.00753665 0.0209553 0)
(-0.0198064 0.032513 0)
(-0.0355377 0.0401064 0)
(-0.0527477 0.0432937 0)
(-0.0698642 0.0421962 0)
(-0.0854703 0.0372805 0)
(-0.0983685 0.0292153 0)
(-0.107629 0.0187786 0)
(-0.112597 0.00681404 0)
(-0.112906 -0.00578111 0)
(-0.108483 -0.0180564 0)
(-0.0995698 -0.0290139 0)
(-0.0867457 -0.0376358 0)
(-0.0709409 -0.0429484 0)
(-0.0534341 -0.0441321 0)
(-0.0357871 -0.0406816 0)
(-0.0197365 -0.0325947 0)
(-0.00737109 -0.0205919 0)
(-0.00120376 -0.00649856 0)
(-0.00160764 0.0112165 0)
(-0.00931864 0.0318769 0)
(-0.0242108 0.0479552 0)
(-0.0430054 0.0580761 0)
(-0.0632611 0.0619415 0)
(-0.0831583 0.0598853 0)
(-0.101131 0.0526319 0)
(-0.1159 0.0411286 0)
(-0.126496 0.0264387 0)
(-0.132246 0.00969324 0)
(-0.132758 -0.00791726 0)
(-0.127931 -0.0251342 0)
(-0.117973 -0.0406281 0)
(-0.10344 -0.0530231 0)
(-0.0852737 -0.0609703 0)
(-0.064839 -0.0632841 0)
(-0.0438878 -0.0591456 0)
(-0.0244789 -0.0483472 0)
(-0.00925479 -0.0315593 0)
(-0.00153783 -0.0107291 0)
(-0.00194015 0.0164781 0)
(-0.0111217 0.0449769 0)
(-0.0286516 0.0662373 0)
(-0.050482 0.0790641 0)
(-0.0736882 0.0834512 0)
(-0.096208 0.0800788 0)
(-0.116357 0.0700284 0)
(-0.13282 0.0545879 0)
(-0.144637 0.0351335 0)
(-0.151148 0.013085 0)
(-0.151956 -0.0100876 0)
(-0.146921 -0.032835 0)
(-0.136187 -0.0535032 0)
(-0.120228 -0.0703411 0)
(-0.0999363 -0.0815699 0)
(-0.0767041 -0.0855373 0)
(-0.052442 -0.0809678 0)
(-0.0295458 -0.0672803 0)
(-0.011284 -0.0449416 0)
(-0.00190014 -0.0159523 0)
(-0.0023001 0.0226961 0)
(-0.0130254 0.0603038 0)
(-0.0332516 0.0873678 0)
(-0.0580811 0.103001 0)
(-0.0840767 0.10767 0)
(-0.108956 0.102566 0)
(-0.130971 0.0892484 0)
(-0.148838 0.069414 0)
(-0.16167 0.0447735 0)
(-0.168872 0.0170202 0)
(-0.170067 -0.0121347 0)
(-0.165075 -0.0408958 0)
(-0.153933 -0.067318 0)
(-0.136973 -0.0892777 0)
(-0.114945 -0.104517 0)
(-0.0891776 -0.110801 0)
(-0.0616719 -0.106217 0)
(-0.035149 -0.0895829 0)
(-0.0135861 -0.0609518 0)
(-0.00232638 -0.0222784 0)
(-0.00271167 0.0299481 0)
(-0.0151081 0.0779594 0)
(-0.0381151 0.11136 0)
(-0.0658489 0.129754 0)
(-0.0943276 0.134322 0)
(-0.1211 0.126979 0)
(-0.144445 0.109906 0)
(-0.163215 0.0852848 0)
(-0.176689 0.0551689 0)
(-0.184408 0.0214873 0)
(-0.186059 -0.0138759 0)
(-0.181424 -0.0489592 0)
(-0.170396 -0.0815971 0)
(-0.153082 -0.109328 0)
(-0.129972 -0.129386 0)
(-0.102187 -0.138833 0)
(-0.0716901 -0.134891 0)
(-0.0414673 -0.115473 0)
(-0.0162882 -0.0798977 0)
(-0.00285472 -0.0298905 0)
(-0.00320765 0.0383606 0)
(-0.0174662 0.098092 0)
(-0.043341 0.138193 0)
(-0.0737566 0.15905 0)
(-0.10416 0.162906 0)
(-0.132032 0.152677 0)
(-0.155826 0.131345 0)
(-0.174679 0.101643 0)
(-0.188168 0.0659594 0)
(-0.196068 0.0263899 0)
(-0.198187 -0.0151138 0)
(-0.194284 -0.0565478 0)
(-0.184082 -0.0956455 0)
(-0.167367 -0.129693 0)
(-0.144216 -0.155428 0)
(-0.115339 -0.169102 0)
(-0.082446 -0.166807 0)
(-0.0486362 -0.145128 0)
(-0.0195288 -0.102162 0)
(-0.00353358 -0.0390481 0)
(-0.00384393 0.0481295 0)
(-0.0202461 0.120896 0)
(-0.0490463 0.167755 0)
(-0.081686 0.19037 0)
(-0.113053 0.192562 0)
(-0.140746 0.178619 0)
(-0.163621 0.152516 0)
(-0.181308 0.117596 0)
(-0.193846 0.0765367 0)
(-0.20136 0.0314948 0)
(-0.203856 -0.0156598 0)
(-0.201109 -0.0630527 0)
(-0.192648 -0.108494 0)
(-0.177857 -0.149175 0)
(-0.156223 -0.18142 0)
(-0.127779 -0.200611 0)
(-0.0936441 -0.201429 0)
(-0.056733 -0.178577 0)
(-0.0234798 -0.128175 0)
(-0.00443553 -0.0501052 0)
(-0.00472532 0.0595719 0)
(-0.0236945 0.146619 0)
(-0.0553825 0.199759 0)
(-0.0893756 0.222795 0)
(-0.120121 0.221896 0)
(-0.145674 0.203192 0)
(-0.165629 0.171844 0)
(-0.180369 0.131813 0)
(-0.190579 0.0859717 0)
(-0.196861 0.036377 0)
(-0.1995 -0.0153714 0)
(-0.198334 -0.067745 0)
(-0.192716 -0.11887 0)
(-0.181573 -0.166082 0)
(-0.163644 -0.205492 0)
(-0.137966 -0.231665 0)
(-0.104595 -0.237629 0)
(-0.0657333 -0.215528 0)
(-0.0283776 -0.15837 0)
(-0.00568207 -0.0635529 0)
(-0.00605152 0.0732289 0)
(-0.0282255 0.175565 0)
(-0.062508 0.233573 0)
(-0.0962558 0.25475 0)
(-0.123855 0.248735 0)
(-0.144396 0.22403 0)
(-0.158668 0.187111 0)
(-0.168104 0.142465 0)
(-0.174198 0.0929706 0)
(-0.178115 0.0403797 0)
(-0.180482 -0.0141991 0)
(-0.181263 -0.0698229 0)
(-0.179693 -0.125213 0)
(-0.174268 -0.178183 0)
(-0.162893 -0.224977 0)
(-0.143315 -0.259592 0)
(-0.113937 -0.273332 0)
(-0.0753927 -0.255069 0)
(-0.0345561 -0.193092 0)
(-0.00748626 -0.0801049 0)
(-0.00819199 0.0900467 0)
(-0.0344823 0.208022 0)
(-0.0704113 0.267886 0)
(-0.101022 0.283609 0)
(-0.121572 0.269814 0)
(-0.133105 0.237844 0)
(-0.138159 0.195407 0)
(-0.139458 0.147235 0)
(-0.139363 0.0959108 0)
(-0.139591 0.0426201 0)
(-0.141105 -0.0122335 0)
(-0.144051 -0.0685086 0)
(-0.147665 -0.125796 0)
(-0.150166 -0.182772 0)
(-0.148718 -0.236328 0)
(-0.139642 -0.28045 0)
(-0.119094 -0.305028 0)
(-0.0849353 -0.295161 0)
(-0.0424402 -0.232379 0)
(-0.010216 -0.100837 0)
(-0.0117674 0.111636 0)
(-0.0432593 0.243962 0)
(-0.0782962 0.300036 0)
(-0.100626 0.305095 0)
(-0.108348 0.280463 0)
(-0.105727 0.240385 0)
(-0.0975245 0.193284 0)
(-0.0877653 0.143551 0)
(-0.0794949 0.0930371 0)
(-0.074779 0.0420954 0)
(-0.0747967 -0.00972919 0)
(-0.0798849 -0.0632124 0)
(-0.0894576 -0.118992 0)
(-0.101784 -0.17696 0)
(-0.113683 -0.235287 0)
(-0.120302 -0.288885 0)
(-0.115261 -0.327198 0)
(-0.0922655 -0.331796 0)
(-0.0523153 -0.275405 0)
(-0.0144303 -0.127347 0)
(-0.0175492 0.140659 0)
(-0.0547641 0.282146 0)
(-0.0827851 0.32472 0)
(-0.0880784 0.312475 0)
(-0.0751054 0.274458 0)
(-0.0525869 0.226772 0)
(-0.0274534 0.17729 0)
(-0.00450873 0.129137 0)
(0.0131052 0.0829138 0)
(0.0234466 0.0379473 0)
(0.0254052 -0.00707381 0)
(0.0185138 -0.0537595 0)
(0.0029856 -0.103753 0)
(-0.0199919 -0.158322 0)
(-0.0476818 -0.217504 0)
(-0.0749817 -0.278363 0)
(-0.0935447 -0.331793 0)
(-0.0920627 -0.357684 0)
(-0.0632801 -0.319295 0)
(-0.0206335 -0.161974 0)
(-0.0254497 0.181711 0)
(-0.0657742 0.317772 0)
(-0.0733321 0.331363 0)
(-0.0480753 0.295402 0)
(-0.00557557 0.244213 0)
(0.0412222 0.192382 0)
(0.0846576 0.145048 0)
(0.120542 0.102973 0)
(0.146708 0.0651386 0)
(0.162053 0.0298917 0)
(0.165948 -0.0046718 0)
(0.157942 -0.0406291 0)
(0.137737 -0.0802476 0)
(0.105445 -0.125919 0)
(0.0622658 -0.179728 0)
(0.0118085 -0.242022 0)
(-0.0378281 -0.307879 0)
(-0.0716784 -0.360144 0)
(-0.0700552 -0.356609 0)
(-0.0279122 -0.208375 0)
(-0.029649 0.239176 0)
(-0.0608411 0.335768 0)
(-0.0219418 0.300503 0)
(0.0505431 0.240128 0)
(0.127574 0.18295 0)
(0.19701 0.13539 0)
(0.25434 0.0973998 0)
(0.298255 0.0668517 0)
(0.328829 0.0413557 0)
(0.346472 0.0187787 0)
(0.351381 -0.00279431 0)
(0.343307 -0.0252656 0)
(0.321473 -0.0507883 0)
(0.284646 -0.0820488 0)
(0.231575 -0.122447 0)
(0.162183 -0.17567 0)
(0.0799019 -0.243432 0)
(-0.00318917 -0.319137 0)
(-0.0546693 -0.368613 0)
(-0.0284593 -0.267618 0)
(0.00808308 0.281861 0)
(0.0197831 0.294972 0)
(0.139066 0.210973 0)
(0.26446 0.143477 0)
(0.364368 0.0971863 0)
(0.440365 0.0657778 0)
(0.496745 0.0442378 0)
(0.536876 0.0288862 0)
(0.563449 0.017199 0)
(0.578308 0.00748482 0)
(0.582383 -0.00149419 0)
(0.575698 -0.0108454 0)
(0.557311 -0.0218473 0)
(0.525137 -0.0363352 0)
(0.475778 -0.0572598 0)
(0.404538 -0.0893843 0)
(0.305177 -0.139741 0)
(0.173417 -0.216386 0)
(0.0411721 -0.311655 0)
(0.0184302 -0.299995 0)
(0.299604 0.146091 0)
(0.396272 0.127503 0)
(0.55742 0.0760895 0)
(0.674487 0.0437233 0)
(0.743889 0.0255721 0)
(0.787154 0.0152423 0)
(0.815486 0.00921239 0)
(0.833956 0.00550945 0)
(0.845386 0.0030272 0)
(0.851372 0.00114935 0)
(0.852667 -0.000499403 0)
(0.849383 -0.0022151 0)
(0.841 -0.0043386 0)
(0.826141 -0.00742412 0)
(0.802079 -0.0125323 0)
(0.763621 -0.0217729 0)
(0.699108 -0.039283 0)
(0.583952 -0.0726601 0)
(0.415827 -0.127868 0)
(0.308819 -0.149468 0)
)
;

boundaryField
{
    movingWall
    {
        type            fixedValue;
        value           uniform (1 0 0);
    }
    fixedWalls
    {
        type            fixedValue;
        value           uniform (0 0 0);
    }
    frontAndBack
    {
        type            empty;
    }
}


// ************************************************************************* //
