 *******************************************************************************
 ** Site#: 10673           For non-commercial use only        Version 11.053L **
 *******************************************************************************
 ** Cite this work as: MOPAC2009, James J. P. Stewart, Stewart Computational  **
 ** Chemistry, Version 11.053L web: HTTP://OpenMOPAC.net  Days remaining: 235 **
 *******************************************************************************
 **                                                                           **
 **                                MOPAC2009                                  **
 **                                                                           **
 *******************************************************************************

                        PM6-DH2 CALCULATION RESULTS


 *******************************************************************************
 *  CALCULATION DONE:                                Sat Jul  2 12:15:53 2011  *
 *  PM6-DH2  - CORRECT DISPERSION AND HYDROGEN BOND TERMS USING PM6-DH2
 *  T=       - A TIME OF 172800.0 SECONDS REQUESTED
 *  DUMP=N   - RESTART FILE WRITTEN EVERY  7200.000 SECONDS
 *  AUX      - OUTPUT AUXILIARY INFORMATION
 *******************************************************************************
PM6-DH2 AUX


   ATOM   CHEMICAL          X               Y               Z
  NUMBER   SYMBOL      (ANGSTROMS)     (ANGSTROMS)     (ANGSTROMS)
 
     1       O          2.00000000  *  -2.04680000  *   2.00000000  *
     2       O          0.00000000  *  -0.04680000  *   0.00000000  *
     3       H          2.97000000  *  -2.04680000  *   2.00000000  *
     4       H          1.18695075  *  -2.58732524  *   2.00000000  *
     5       H         -0.76550000  *  -0.60670000  *   0.00000000  *
     6       H          0.76550000  *  -0.60670000  *   0.00000000  *
 


          CARTESIAN COORDINATES 

    NO.       ATOM         X         Y         Z

     1         O        2.0000   -2.0468    2.0000
     2         O        0.0000   -0.0468    0.0000
     3         H        2.9700   -2.0468    2.0000
     4         H        1.1870   -2.5873    2.0000
     5         H       -0.7655   -0.6067    0.0000
     6         H        0.7655   -0.6067    0.0000

 General Reference for PM6:
 "Optimization of Parameters for Semiempirical Methods V: Modification of NDDO Approximations
 and Application to 70 Elements", J. J. P. Stewart, J. Mol. Mod., 13, 1173-1213 (2007)
 URL: http://www.springerlink.com/content/ar33482301010477/fulltext.pdf

           Empirical Formula: H4 O2  =     6 atoms



      MOLECULAR POINT GROUP   :   C1  


      RHF CALCULATION, NO. OF DOUBLY OCCUPIED LEVELS =    8

      Geometry optimization using EF

          DIAGONAL MATRIX USED AS START HESSIAN

 CYCLE:     1 TIME:   0.000 TIME LEFT:  2.00D  GRAD.:    92.109 HEAT:-94.75440
 CYCLE:     2 TIME:   0.000 TIME LEFT:  2.00D  GRAD.:    60.336 HEAT:-102.6172
 CYCLE:     3 TIME:   0.003 TIME LEFT:  2.00D  GRAD.:    33.984 HEAT:-108.6733
 CYCLE:     4 TIME:   0.000 TIME LEFT:  2.00D  GRAD.:    21.446 HEAT:-110.1308
 CYCLE:     5 TIME:   0.000 TIME LEFT:  2.00D  GRAD.:    20.209 HEAT:-110.3791
 CYCLE:     6 TIME:   0.003 TIME LEFT:  2.00D  GRAD.:     6.683 HEAT:-110.7079
 CYCLE:     7 TIME:   0.000 TIME LEFT:  2.00D  GRAD.:     5.965 HEAT:-110.8513
 CYCLE:     8 TIME:   0.003 TIME LEFT:  2.00D  GRAD.:    13.415 HEAT:-111.3792
 CYCLE:     9 TIME:   0.000 TIME LEFT:  2.00D  GRAD.:    10.175 HEAT:-111.6357
 CYCLE:    10 TIME:   0.003 TIME LEFT:  2.00D  GRAD.:     8.962 HEAT:-111.8206
 CYCLE:    11 TIME:   0.000 TIME LEFT:  2.00D  GRAD.:     8.990 HEAT:-111.8559
 CYCLE:    12 TIME:   0.000 TIME LEFT:  2.00D  GRAD.:     3.666 HEAT:-111.9083
 CYCLE:    13 TIME:   0.003 TIME LEFT:  2.00D  GRAD.:     4.095 HEAT:-111.9510
 CYCLE:    14 TIME:   0.000 TIME LEFT:  2.00D  GRAD.:     8.360 HEAT:-112.0942
 CYCLE:    15 TIME:   0.000 TIME LEFT:  2.00D  GRAD.:    12.083 HEAT:-112.2711
 CYCLE:    16 TIME:   0.003 TIME LEFT:  2.00D  GRAD.:    14.607 HEAT:-112.4748
 CYCLE:    17 TIME:   0.000 TIME LEFT:  2.00D  GRAD.:     8.136 HEAT:-112.6532
 CYCLE:    18 TIME:   0.003 TIME LEFT:  2.00D  GRAD.:     7.580 HEAT:-112.7550
 CYCLE:    19 TIME:   0.000 TIME LEFT:  2.00D  GRAD.:     4.001 HEAT:-112.8528
 CYCLE:    20 TIME:   0.000 TIME LEFT:  2.00D  GRAD.:     4.269 HEAT:-112.8847
 CYCLE:    21 TIME:   0.003 TIME LEFT:  2.00D  GRAD.:     5.609 HEAT:-112.8857
 CYCLE:    22 TIME:   0.000 TIME LEFT:  2.00D  GRAD.:     1.918 HEAT:-112.9059
 CYCLE:    23 TIME:   0.000 TIME LEFT:  2.00D  GRAD.:     1.290 HEAT:-112.9119
 CYCLE:    24 TIME:   0.003 TIME LEFT:  2.00D  GRAD.:     2.345 HEAT:-112.9187
 CYCLE:    25 TIME:   0.000 TIME LEFT:  2.00D  GRAD.:     2.598 HEAT:-112.9270
 CYCLE:    26 TIME:   0.000 TIME LEFT:  2.00D  GRAD.:     3.104 HEAT:-112.9448
 CYCLE:    27 TIME:   0.003 TIME LEFT:  2.00D  GRAD.:     2.324 HEAT:-112.9753
 CYCLE:    28 TIME:   0.000 TIME LEFT:  2.00D  GRAD.:     1.865 HEAT:-112.9897
 CYCLE:    29 TIME:   0.003 TIME LEFT:  2.00D  GRAD.:     1.617 HEAT:-112.9997
 CYCLE:    30 TIME:   0.000 TIME LEFT:  2.00D  GRAD.:     1.487 HEAT:-113.0022
 CYCLE:    31 TIME:   0.000 TIME LEFT:  2.00D  GRAD.:     3.315 HEAT:-113.0090
 CYCLE:    32 TIME:   0.000 TIME LEFT:  2.00D  GRAD.:     3.217 HEAT:-113.0255
 CYCLE:    33 TIME:   0.003 TIME LEFT:  2.00D  GRAD.:     3.860 HEAT:-113.0612
 CYCLE:    34 TIME:   0.000 TIME LEFT:  2.00D  GRAD.:     6.014 HEAT:-113.1063
 CYCLE:    35 TIME:   0.000 TIME LEFT:  2.00D  GRAD.:     4.682 HEAT:-113.1312
 CYCLE:    36 TIME:   0.003 TIME LEFT:  2.00D  GRAD.:     2.859 HEAT:-113.1631
 CYCLE:    37 TIME:   0.000 TIME LEFT:  2.00D  GRAD.:     4.411 HEAT:-113.1826
 CYCLE:    38 TIME:   0.003 TIME LEFT:  2.00D  GRAD.:     4.302 HEAT:-113.1962
 CYCLE:    39 TIME:   0.000 TIME LEFT:  2.00D  GRAD.:     4.396 HEAT:-113.2141
 CYCLE:    40 TIME:   0.000 TIME LEFT:  2.00D  GRAD.:     4.995 HEAT:-113.2228
 CYCLE:    41 TIME:   0.003 TIME LEFT:  2.00D  GRAD.:     6.119 HEAT:-113.2447
 CYCLE:    42 TIME:   0.000 TIME LEFT:  2.00D  GRAD.:     6.075 HEAT:-113.2562
 CYCLE:    43 TIME:   0.000 TIME LEFT:  2.00D  GRAD.:     2.468 HEAT:-113.2844
 CYCLE:    44 TIME:   0.003 TIME LEFT:  2.00D  GRAD.:     3.607 HEAT:-113.2985
 CYCLE:    45 TIME:   0.000 TIME LEFT:  2.00D  GRAD.:     2.861 HEAT:-113.3162
 CYCLE:    46 TIME:   0.000 TIME LEFT:  2.00D  GRAD.:     3.747 HEAT:-113.3385
 CYCLE:    47 TIME:   0.003 TIME LEFT:  2.00D  GRAD.:     3.451 HEAT:-113.3588
 CYCLE:    48 TIME:   0.000 TIME LEFT:  2.00D  GRAD.:     3.617 HEAT:-113.3702
 CYCLE:    49 TIME:   0.003 TIME LEFT:  2.00D  GRAD.:     1.601 HEAT:-113.3850
 CYCLE:    50 TIME:   0.000 TIME LEFT:  2.00D  GRAD.:     1.056 HEAT:-113.3907
 CYCLE:    51 TIME:   0.000 TIME LEFT:  2.00D  GRAD.:     1.557 HEAT:-113.4018
 CYCLE:    52 TIME:   0.003 TIME LEFT:  2.00D  GRAD.:     1.095 HEAT:-113.4033
 CYCLE:    53 TIME:   0.000 TIME LEFT:  2.00D  GRAD.:     1.099 HEAT:-113.4067
 CYCLE:    54 TIME:   0.000 TIME LEFT:  2.00D  GRAD.:     0.864 HEAT:-113.4081

     RMS GRADIENT =  0.86387  IS LESS THAN CUTOFF =  1.00000



 -------------------------------------------------------------------------------
PM6-DH2 AUX




     GEOMETRY OPTIMISED USING EIGENVECTOR FOLLOWING (EF).     
     SCF FIELD WAS ACHIEVED                                   


                              PM6-DH2  CALCULATION
                                                       MOPAC2009 (Version: 11.053L)
                                                       Sat Jul  2 12:15:53 2011
                                                       No. of days left = 235




          FINAL HEAT OF FORMATION =       -113.40808 KCAL/MOL =    -474.49941 KJ/MOL

     'DH' Dispersion contribution =         -0.14952 Kcal/mol
     'DH' H-bond contribution     =         -0.75361 Kcal/mol


          TOTAL ENERGY            =       -638.32383 EV
          ELECTRONIC ENERGY       =      -1217.50341 EV  POINT GROUP:     C1  
          CORE-CORE REPULSION     =        579.17957 EV
          COSMO AREA              =         73.83 SQUARE ANGSTROMS
          COSMO VOLUME            =         49.91 CUBIC ANGSTROMS

          GRADIENT NORM           =          0.86387
          IONIZATION POTENTIAL    =         11.459836 EV
          HOMO LUMO ENERGIES (EV) =        -11.460  3.421
          NO. OF FILLED LEVELS    =          8
          MOLECULAR WEIGHT        =         36.030

          MOLECULAR DIMENSIONS (Angstroms)

            Atom       Atom       Distance
            H     5    H     3     3.92899
            H     4    O     2     1.55658
            H     4    O     1     0.71580


          SCF CALCULATIONS        =         64
          COMPUTATION TIME        =          0.080 SECONDS




   ATOM   CHEMICAL          X               Y               Z
  NUMBER   SYMBOL      (ANGSTROMS)     (ANGSTROMS)     (ANGSTROMS)
 
     1       O          1.73997150  *  -1.82680631  *   1.89344355  *
     2       O          0.19947108  *  -0.44183939  *  -0.00850173  *
     3       H          2.68248696  *  -1.73368585  *   1.77831268  *
     4       H          1.50263989  *  -2.69854239  *   1.58328098  *
     5       H         -0.56481128  *  -0.02920952  *   0.36876909  *
     6       H          0.77790919  *  -0.68866719  *   0.72805419  *

           Empirical Formula: H4 O2  =     6 atoms



      MOLECULAR POINT GROUP   :   C1  


                  EIGENVALUES  
 -30.90959 -29.62750 -19.42640 -18.42903 -14.79248 -13.76031 -12.38884 -11.45984
   3.42118   4.74669   5.52695   6.58152


              NET ATOMIC CHARGES AND DIPOLE CONTRIBUTIONS

  ATOM NO.   TYPE          CHARGE      No. of ELECS.   s-Pop       p-Pop       
    1          O          -0.622981        6.6230     1.76276     4.86022
    2          O          -0.650468        6.6505     1.76857     4.88189
    3          H           0.318010        0.6820     0.68199
    4          H           0.319889        0.6801     0.68011
    5          H           0.307873        0.6921     0.69213
    6          H           0.327677        0.6723     0.67232
 DIPOLE           X         Y         Z       TOTAL
 POINT-CHG.     0.966    -1.075     1.201     1.879
 HYBRID         0.162    -0.201     0.223     0.341
 SUM            1.128    -1.276     1.424     2.220


          CARTESIAN COORDINATES 

    NO.       ATOM               X         Y         Z

     1         O                  1.7400   -1.8268    1.8934
     2         O                  0.1995   -0.4418   -0.0085
     3         H                  2.6825   -1.7337    1.7783
     4         H                  1.5026   -2.6985    1.5833
     5         H                 -0.5648   -0.0292    0.3688
     6         H                  0.7779   -0.6887    0.7281


          ATOMIC ORBITAL ELECTRON POPULATIONS

   1.76276   1.42620   1.51811   1.91591   1.76857   1.47696   1.86561   1.53933
   0.68199   0.68011   0.69213   0.67232



 TOTAL CPU TIME:             0.08 SECONDS

 == MOPAC DONE ==
