# vtk DataFile Version 3.0
vtk output
ASCII
DATASET UNSTRUCTURED_GRID
POINTS 10141 float
0.104 0 0 0.103956 0.00302481 0 0.103824 0.00604706 0 
0.103604 0.0090642 0 0.103297 0.0120737 0 0.102902 0.0150729 0 
0.10242 0.0180594 0 0.101851 0.0210306 0 0.101197 0.0239841 0 
0.100456 0.0269172 0 0.0996309 0.0298275 0 0.0987212 0.0327127 0 
0.097728 0.0355701 0 0.103956 0 0.00302481 0.103912 0.00302348 0.00303903 
0.103779 0.0060444 0.00305068 0.103559 0.00906021 0.00305976 0.103252 0.0120684 0.00306624 
0.102857 0.0150663 0.00307013 0.102375 0.0180515 0.00307143 0.101807 0.0210215 0.00307013 
0.101153 0.0239737 0.00306624 0.100413 0.0269056 0.00305976 0.099588 0.0298148 0.00305068 
0.0986791 0.0326987 0.00303903 0.0976867 0.035555 0.00302481 0.103824 0 0.00604706 
0.103778 0.00301948 0.00607542 0.103645 0.00603642 0.00609865 0.103425 0.00904827 0.00611674 
0.103117 0.0120525 0.00612967 0.102723 0.0150465 0.00613744 0.102241 0.0180279 0.00614003 
0.101674 0.0209941 0.00613744 0.101021 0.0239425 0.00612967 0.100282 0.0268708 0.00611674 
0.0994594 0.0297764 0.00609865 0.0985526 0.0326569 0.00607542 0.0975627 0.0355099 0.00604706 
0.103604 0 0.0090642 0.103557 0.00301283 0.00910652 0.103422 0.00602313 0.00914119 
0.103201 0.00902837 0.00916819 0.102893 0.012026 0.00918749 0.102499 0.0150136 0.00919908 
0.102018 0.0179886 0.00920294 0.101452 0.0209484 0.00919908 0.100801 0.0238907 0.00918749 
0.100065 0.0268129 0.00916819 0.0992452 0.0297126 0.00914119 0.0983419 0.0325873 0.00910652 
0.0973561 0.0354347 0.0090642 0.103297 0 0.0120737 0.103247 0.00300353 0.0121297 
0.10311 0.00600455 0.0121756 0.102888 0.00900055 0.0122113 0.102579 0.0119891 0.0122369 
0.102185 0.0149675 0.0122522 0.101706 0.0179335 0.0122574 0.101142 0.0208846 0.0122522 
0.100494 0.0238182 0.0122369 0.0997612 0.0267319 0.0122113 0.0989455 0.0296233 0.0121756 
0.0980473 0.03249 0.0121297 0.0970672 0.0353296 0.0120737 0.102902 0 0.0150729 
0.102848 0.00299158 0.0151423 0.102709 0.00598069 0.0151992 0.102485 0.00896484 0.0152435 
0.102177 0.0119416 0.0152751 0.101783 0.0149084 0.0152941 0.101306 0.0178629 0.0153004 
0.100744 0.0208026 0.0152941 0.100099 0.0237251 0.0152751 0.099371 0.0266279 0.0152435 
0.0985608 0.0295087 0.0151992 0.0976689 0.032365 0.0151423 0.0966962 0.0351945 0.0150729 
0.10242 0 0.0180594 0.102362 0.00297701 0.0181418 0.10222 0.00595158 0.0182092 
0.101995 0.00892127 0.0182618 0.101685 0.0118836 0.0182994 0.101293 0.0148363 0.0183219 
0.100817 0.0177767 0.0183294 0.100258 0.0207026 0.0183219 0.0996174 0.0236115 0.0182994 
0.0988949 0.026501 0.0182618 0.0980913 0.0293688 0.0182092 0.0972072 0.0322124 0.0181418 
0.0962433 0.0350297 0.0180594 0.101851 0 0.0210306 0.101789 0.00295983 0.0211255 
0.101644 0.00591727 0.0212031 0.101416 0.0088699 0.0212636 0.101106 0.0118153 0.0213069 
0.100714 0.0147512 0.0213328 0.10024 0.0176751 0.0213415 0.0996854 0.0205846 0.0213328 
0.0990496 0.0234775 0.0213069 0.0983334 0.0263513 0.0212636 0.0975375 0.0292037 0.0212031 
0.0966625 0.0320325 0.0211255 0.095709 0.0348352 0.0210306 0.101197 0 0.0239841 
0.101129 0.00294007 0.0240908 0.10098 0.00587778 0.0241782 0.10075 0.00881078 0.0242463 
0.100439 0.0117367 0.024295 0.100048 0.0146533 0.0243242 0.099577 0.0175581 0.0243339 
0.0990261 0.0204489 0.0243242 0.098396 0.0233233 0.024295 0.0976871 0.026179 0.0242463 
0.0969 0.0290137 0.0241782 0.0960353 0.0318253 0.0240908 0.0950938 0.0346113 0.0239841 
0.100456 0 0.0269172 0.100382 0.00291773 0.0270352 0.100229 0.00583316 0.0271319 
0.0999966 0.00874398 0.0272071 0.0996853 0.0116479 0.0272609 0.0992955 0.0145426 0.0272932 
0.0988273 0.0174259 0.027304 0.0982811 0.0202954 0.0272932 0.0976574 0.0231489 0.0272609 
0.0969567 0.0259842 0.0272071 0.0961794 0.0287989 0.0271319 0.0953263 0.031591 0.0270352 
0.094398 0.0343581 0.0269172 0.0996309 0 0.0298275 0.0995503 0.00289285 0.0299561 
0.0993925 0.00578346 0.0300614 0.0991575 0.00866958 0.0301435 0.0988456 0.011549 0.0302021 
0.098457 0.0144194 0.0302373 0.0979921 0.0172786 0.030249 0.0974511 0.0201245 0.0302373 
0.0968345 0.0229547 0.0302021 0.0961427 0.0257671 0.0301435 0.0953764 0.0285596 0.0300614 
0.0945361 0.0313298 0.0299561 0.0936224 0.0340758 0.0298275 0.0987212 0 0.0327127 
0.0986337 0.00286546 0.0328511 0.0984709 0.00572873 0.0329644 0.0982332 0.00858765 0.0330527 
0.0979207 0.01144 0.0331158 0.0975336 0.0142837 0.0331537 0.0970723 0.0171165 0.0331663 
0.0965369 0.0199362 0.0331537 0.0959281 0.0227408 0.0331158 0.0952462 0.025528 0.0330527 
0.0944918 0.0282958 0.0329644 0.0936654 0.031042 0.0328511 0.0927676 0.0337646 0.0327127 
0.097728 0 0.0355701 0.0976331 0.00283558 0.0357175 0.0974653 0.00566905 0.0358383 
0.0972247 0.00849828 0.0359323 0.0969116 0.0113212 0.0359995 0.0965262 0.0141356 0.0360399 
0.0960688 0.0169395 0.0360533 0.0955397 0.0197308 0.0360399 0.0949392 0.0225073 0.0359995 
0.0942679 0.025267 0.0359323 0.0935263 0.0280079 0.0358383 0.0927149 0.0307279 0.0357175 
0.0918343 0.033425 0.0355701 0.104353 0 0 0.104309 0.00303509 0 
0.104177 0.00606761 0 0.103956 0.009095 0 0.103648 0.0121147 0 
0.103252 0.0151241 0 0.102768 0.0181208 0 0.102198 0.0211021 0 
0.101541 0.0240656 0 0.100798 0.0270087 0 0.0999695 0.0299289 0 
0.0990567 0.0328238 0 0.0980601 0.035691 0 0.104309 0 0.00303509 
0.104265 0.00303375 0.00304936 0.104132 0.00606494 0.00306105 0.103911 0.009091 0.00307015 
0.103603 0.0121094 0.00307666 0.103207 0.0151175 0.00308057 0.102723 0.0181129 0.00308187 
0.102153 0.0210929 0.00308057 0.101496 0.0240551 0.00307666 0.100754 0.026997 0.00307015 
0.0999265 0.0299161 0.00306105 0.0990144 0.0328098 0.00304936 0.0980187 0.0356759 0.00303509 
0.104177 0 0.00606761 0.104131 0.00302974 0.00609606 0.103998 0.00605694 0.00611938 
0.103776 0.00907902 0.00613753 0.103468 0.0120934 0.0061505 0.103072 0.0150977 0.00615829 
0.102589 0.0180892 0.00616089 0.102019 0.0210654 0.00615829 0.101364 0.0240239 0.0061505 
0.100623 0.0269621 0.00613753 0.0997974 0.0298776 0.00611938 0.0988875 0.0327679 0.00609606 
0.0978942 0.0356306 0.00606761 0.103956 0 0.009095 0.103909 0.00302307 0.00913746 
0.103774 0.0060436 0.00917226 0.103552 0.00905906 0.00919935 0.103243 0.0120669 0.00921871 
0.102847 0.0150646 0.00923034 0.102365 0.0180497 0.00923422 0.101797 0.0210196 0.00923034 
0.101143 0.0239719 0.00921871 0.100405 0.026904 0.00919935 0.0995824 0.0298136 0.00917226 
0.0986761 0.0326981 0.00913746 0.097687 0.0355552 0.009095 0.103648 0 0.0121147 
0.103597 0.00301373 0.0121709 0.103461 0.00602495 0.012217 0.103237 0.00903114 0.0122528 
0.102928 0.0120298 0.0122785 0.102533 0.0150184 0.0122939 0.102052 0.0179945 0.012299 
0.101486 0.0209555 0.0122939 0.100835 0.0238991 0.0122785 0.1001 0.0268227 0.0122528 
0.0992818 0.029724 0.012217 0.0983805 0.0326004 0.0121709 0.0973971 0.0354496 0.0121147 
0.103252 0 0.0151241 0.103198 0.00300175 0.0151938 0.103058 0.00600101 0.0152508 
0.102834 0.00899531 0.0152953 0.102524 0.0119822 0.015327 0.102129 0.0149591 0.0153461 
0.10165 0.0179236 0.0153524 0.101086 0.0208733 0.0153461 0.100439 0.0238057 0.015327 
0.0997087 0.0267184 0.0152953 0.0988957 0.0296089 0.0152508 0.0980008 0.032475 0.0151938 
0.0970248 0.0353141 0.0151241 0.102768 0 0.0181208 0.10271 0.00298713 0.0182034 
0.102568 0.00597181 0.0182711 0.102341 0.00895159 0.0183238 0.102031 0.011924 0.0183615 
0.101637 0.0148867 0.0183842 0.101159 0.0178371 0.0183917 0.100599 0.0207729 0.0183842 
0.099956 0.0236917 0.0183615 0.099231 0.026591 0.0183238 0.0984246 0.0294686 0.0182711 
0.0975375 0.0323219 0.0182034 0.0965704 0.0351487 0.0181208 0.102198 0 0.0211021 
0.102135 0.00296989 0.0211972 0.101989 0.00593738 0.0212752 0.101761 0.00890004 0.0213359 
0.10145 0.0118555 0.0213793 0.101056 0.0148013 0.0214053 0.100581 0.0177351 0.021414 
0.100024 0.0206546 0.0214053 0.0993862 0.0235573 0.0213793 0.0986676 0.0264408 0.0213359 
0.097869 0.029303 0.0212752 0.096991 0.0321413 0.0211972 0.0960343 0.0349536 0.0211021 
0.101541 0 0.0240656 0.101472 0.00295006 0.0241727 0.101323 0.00589775 0.0242604 
0.101092 0.00884072 0.0243287 0.10078 0.0117766 0.0243775 0.100388 0.0147031 0.0244069 
0.0999154 0.0176178 0.0244166 0.0993627 0.0205184 0.0244069 0.0987304 0.0234025 0.0243775 
0.0980191 0.0262679 0.0243287 0.0972293 0.0291123 0.0242604 0.0963617 0.0319334 0.0241727 
0.0954169 0.0347289 0.0240656 0.100798 0 0.0270087 0.100723 0.00292764 0.0271271 
0.10057 0.00585298 0.0272241 0.100336 0.0087737 0.0272996 0.100024 0.0116875 0.0273536 
0.0996329 0.0145921 0.027386 0.0991631 0.0174851 0.0273968 0.0986151 0.0203644 0.027386 
0.0979893 0.0232276 0.0273536 0.0972862 0.0260725 0.0272996 0.0965063 0.0288968 0.0272241 
0.0956503 0.0316983 0.0271271 0.0947188 0.0344748 0.0270087 0.0999695 0 0.0299289 
0.0998886 0.00290268 0.0300579 0.0997302 0.00580311 0.0301636 0.0994945 0.00869904 0.0302459 
0.0991815 0.0115882 0.0303047 0.0987916 0.0144684 0.03034 0.0983251 0.0173374 0.0303518 
0.0977822 0.0201929 0.03034 0.0971636 0.0230327 0.0303047 0.0964695 0.0258547 0.0302459 
0.0957005 0.0286566 0.0301636 0.0948574 0.0314363 0.0300579 0.0939406 0.0341916 0.0299289 
0.0990567 0 0.0328238 0.0989688 0.0028752 0.0329627 0.0988056 0.0057482 0.0330765 
0.0985671 0.00861683 0.033165 0.0982535 0.0114789 0.0332284 0.0978651 0.0143322 0.0332664 
0.0974021 0.0171746 0.033279 0.096865 0.020004 0.0332664 0.0962541 0.022818 0.0332284 
0.0955699 0.0256148 0.033165 0.0948129 0.028392 0.0330765 0.0939837 0.0311475 0.0329627 
0.0930829 0.0338794 0.0328238 0.0980601 0 0.035691 0.0979649 0.00284522 0.0358389 
0.0977965 0.00568831 0.0359601 0.0975551 0.00852716 0.0360544 0.097241 0.0113596 0.0361219 
0.0968543 0.0141837 0.0361623 0.0963953 0.0169971 0.0361758 0.0958643 0.0197978 0.0361623 
0.0952619 0.0225838 0.0361219 0.0945883 0.0253529 0.0360544 0.0938442 0.0281031 0.0359601 
0.09303 0.0308323 0.0358389 0.0921464 0.0335385 0.035691 0.104733 0 0 
0.104689 0.00304614 0 0.104556 0.0060897 0 0.104335 0.00912811 0 
0.104025 0.0121588 0 0.103628 0.0151792 0 0.103142 0.0181868 0 
[...]
CELL_DATA 7776
FIELD FieldData 1
CellId 1 7776 vtkIdType
2592 2593 2594 2595 2596 2597 2598 2599 2600 
2601 2602 2603 2604 2605 2606 2607 2608 2609 
2610 2611 2612 2613 2614 2615 2616 2617 2618 
2619 2620 2621 2622 2623 2624 2625 2626 2627 
2628 2629 2630 2631 2632 2633 2634 2635 2636 
2637 2638 2639 2640 2641 2642 2643 2644 2645 
2646 2647 2648 2649 2650 2651 2652 2653 2654 
2655 2656 2657 2658 2659 2660 2661 2662 2663 
2664 2665 2666 2667 2668 2669 2670 2671 2672 
2673 2674 2675 2676 2677 2678 2679 2680 2681 
2682 2683 2684 2685 2686 2687 2688 2689 2690 
2691 2692 2693 2694 2695 2696 2697 2698 2699 
2700 2701 2702 2703 2704 2705 2706 2707 2708 
2709 2710 2711 2712 2713 2714 2715 2716 2717 
2718 2719 2720 2721 2722 2723 2724 2725 2726 
2727 2728 2729 2730 2731 2732 2733 2734 2735 
2736 2737 2738 2739 2740 2741 2742 2743 2744 
2745 2746 2747 2748 2749 2750 2751 2752 2753 
2754 2755 2756 2757 2758 2759 2760 2761 2762 
2763 2764 2765 2766 2767 2768 2769 2770 2771 
2772 2773 2774 2775 2776 2777 2778 2779 2780 
2781 2782 2783 2784 2785 2786 2787 2788 2789 
2790 2791 2792 2793 2794 2795 2796 2797 2798 
2799 2800 2801 2802 2803 2804 2805 2806 2807 
2808 2809 2810 2811 2812 2813 2814 2815 2816 
2817 2818 2819 2820 2821 2822 2823 2824 2825 
2826 2827 2828 2829 2830 2831 2832 2833 2834 
2835 2836 2837 2838 2839 2840 2841 2842 2843 
2844 2845 2846 2847 2848 2849 2850 2851 2852 
2853 2854 2855 2856 2857 2858 2859 2860 2861 
2862 2863 2864 2865 2866 2867 2868 2869 2870 
2871 2872 2873 2874 2875 2876 2877 2878 2879 
2880 2881 2882 2883 2884 2885 2886 2887 2888 
2889 2890 2891 2892 2893 2894 2895 2896 2897 
2898 2899 2900 2901 2902 2903 2904 2905 2906 
2907 2908 2909 2910 2911 2912 2913 2914 2915 
2916 2917 2918 2919 2920 2921 2922 2923 2924 
2925 2926 2927 2928 2929 2930 2931 2932 2933 
2934 2935 2936 2937 2938 2939 2940 2941 2942 
2943 2944 2945 2946 2947 2948 2949 2950 2951 
2952 2953 2954 2955 2956 2957 2958 2959 2960 
2961 2962 2963 2964 2965 2966 2967 2968 2969 
2970 2971 2972 2973 2974 2975 2976 2977 2978 
2979 2980 2981 2982 2983 2984 2985 2986 2987 
2988 2989 2990 2991 2992 2993 2994 2995 2996 
2997 2998 2999 3000 3001 3002 3003 3004 3005 
3006 3007 3008 3009 3010 3011 3012 3013 3014 
3015 3016 3017 3018 3019 3020 3021 3022 3023 
3024 3025 3026 3027 3028 3029 3030 3031 3032 
3033 3034 3035 3036 3037 3038 3039 3040 3041 
3042 3043 3044 3045 3046 3047 3048 3049 3050 
3051 3052 3053 3054 3055 3056 3057 3058 3059 
3060 3061 3062 3063 3064 3065 3066 3067 3068 
3069 3070 3071 3072 3073 3074 3075 3076 3077 
3078 3079 3080 3081 3082 3083 3084 3085 3086 
3087 3088 3089 3090 3091 3092 3093 3094 3095 
3096 3097 3098 3099 3100 3101 3102 3103 3104 
3105 3106 3107 3108 3109 3110 3111 3112 3113 
3114 3115 3116 3117 3118 3119 3120 3121 3122 
3123 3124 3125 3126 3127 3128 3129 3130 3131 
3132 3133 3134 3135 3136 3137 3138 3139 3140 
3141 3142 3143 3144 3145 3146 3147 3148 3149 
3150 3151 3152 3153 3154 3155 3156 3157 3158 
3159 3160 3161 3162 3163 3164 3165 3166 3167 
3168 3169 3170 3171 3172 3173 3174 3175 3176 
3177 3178 3179 3180 3181 3182 3183 3184 3185 
3186 3187 3188 3189 3190 3191 3192 3193 3194 
3195 3196 3197 3198 3199 3200 3201 3202 3203 
3204 3205 3206 3207 3208 3209 3210 3211 3212 
3213 3214 3215 3216 3217 3218 3219 3220 3221 
3222 3223 3224 3225 3226 3227 3228 3229 3230 
3231 3232 3233 3234 3235 3236 3237 3238 3239 
3240 3241 3242 3243 3244 3245 3246 3247 3248 
3249 3250 3251 3252 3253 3254 3255 3256 3257 
3258 3259 3260 3261 3262 3263 3264 3265 3266 
3267 3268 3269 3270 3271 3272 3273 3274 3275 
3276 3277 3278 3279 3280 3281 3282 3283 3284 
3285 3286 3287 3288 3289 3290 3291 3292 3293 
3294 3295 3296 3297 3298 3299 3300 3301 3302 
3303 3304 3305 3306 3307 3308 3309 3310 3311 
3312 3313 3314 3315 3316 3317 3318 3319 3320 
3321 3322 3323 3324 3325 3326 3327 3328 3329 
3330 3331 3332 3333 3334 3335 3336 3337 3338 
3339 3340 3341 3342 3343 3344 3345 3346 3347 
3348 3349 3350 3351 3352 3353 3354 3355 3356 
3357 3358 3359 3360 3361 3362 3363 3364 3365 
3366 3367 3368 3369 3370 3371 3372 3373 3374 
3375 3376 3377 3378 3379 3380 3381 3382 3383 
3384 3385 3386 3387 3388 3389 3390 3391 3392 
3393 3394 3395 3396 3397 3398 3399 3400 3401 
3402 3403 3404 3405 3406 3407 3408 3409 3410 
3411 3412 3413 3414 3415 3416 3417 3418 3419 
3420 3421 3422 3423 3424 3425 3426 3427 3428 
3429 3430 3431 3432 3433 3434 3435 3436 3437 
3438 3439 3440 3441 3442 3443 3444 3445 3446 
3447 3448 3449 3450 3451 3452 3453 3454 3455 
3456 3457 3458 3459 3460 3461 3462 3463 3464 
3465 3466 3467 3468 3469 3470 3471 3472 3473 
3474 3475 3476 3477 3478 3479 3480 3481 3482 
3483 3484 3485 3486 3487 3488 3489 3490 3491 
3492 3493 3494 3495 3496 3497 3498 3499 3500 
3501 3502 3503 3504 3505 3506 3507 3508 3509 
3510 3511 3512 3513 3514 3515 3516 3517 3518 
3519 3520 3521 3522 3523 3524 3525 3526 3527 
3528 3529 3530 3531 3532 3533 3534 3535 3536 
3537 3538 3539 3540 3541 3542 3543 3544 3545 
3546 3547 3548 3549 3550 3551 3552 3553 3554 
3555 3556 3557 3558 3559 3560 3561 3562 3563 
3564 3565 3566 3567 3568 3569 3570 3571 3572 
3573 3574 3575 3576 3577 3578 3579 3580 3581 
3582 3583 3584 3585 3586 3587 3588 3589 3590 
3591 3592 3593 3594 3595 3596 3597 3598 3599 
3600 3601 3602 3603 3604 3605 3606 3607 3608 
3609 3610 3611 3612 3613 3614 3615 3616 3617 
3618 3619 3620 3621 3622 3623 3624 3625 3626 
3627 3628 3629 3630 3631 3632 3633 3634 3635 
3636 3637 3638 3639 3640 3641 3642 3643 3644 
3645 3646 3647 3648 3649 3650 3651 3652 3653 
3654 3655 3656 3657 3658 3659 3660 3661 3662 
3663 3664 3665 3666 3667 3668 3669 3670 3671 
3672 3673 3674 3675 3676 3677 3678 3679 3680 
3681 3682 3683 3684 3685 3686 3687 3688 3689 
3690 3691 3692 3693 3694 3695 3696 3697 3698 
3699 3700 3701 3702 3703 3704 3705 3706 3707 
3708 3709 3710 3711 3712 3713 3714 3715 3716 
3717 3718 3719 3720 3721 3722 3723 3724 3725 
3726 3727 3728 3729 3730 3731 3732 3733 3734 
3735 3736 3737 3738 3739 3740 3741 3742 3743 
3744 3745 3746 3747 3748 3749 3750 3751 3752 
3753 3754 3755 3756 3757 3758 3759 3760 3761 
3762 3763 3764 3765 3766 3767 3768 3769 3770 
3771 3772 3773 3774 3775 3776 3777 3778 3779 
3780 3781 3782 3783 3784 3785 3786 3787 3788 
3789 3790 3791 3792 3793 3794 3795 3796 3797 
3798 3799 3800 3801 3802 3803 3804 3805 3806 
3807 3808 3809 3810 3811 3812 3813 3814 3815 
3816 3817 3818 3819 3820 3821 3822 3823 3824 
3825 3826 3827 3828 3829 3830 3831 3832 3833 
3834 3835 3836 3837 3838 3839 3840 3841 3842 
3843 3844 3845 3846 3847 3848 3849 3850 3851 
3852 3853 3854 3855 3856 3857 3858 3859 3860 
3861 3862 3863 3864 3865 3866 3867 3868 3869 
3870 3871 3872 3873 3874 3875 3876 3877 3878 
3879 3880 3881 3882 3883 3884 3885 3886 3887 
3888 3889 3890 3891 3892 3893 3894 3895 3896 
3897 3898 3899 3900 3901 3902 3903 3904 3905 
3906 3907 3908 3909 3910 3911 3912 3913 3914 
3915 3916 3917 3918 3919 3920 3921 3922 3923 
3924 3925 3926 3927 3928 3929 3930 3931 3932 
3933 3934 3935 3936 3937 3938 3939 3940 3941 
3942 3943 3944 3945 3946 3947 3948 3949 3950 
3951 3952 3953 3954 3955 3956 3957 3958 3959 
3960 3961 3962 3963 3964 3965 3966 3967 3968 
3969 3970 3971 3972 3973 3974 3975 3976 3977 
3978 3979 3980 3981 3982 3983 3984 3985 3986 
3987 3988 3989 3990 3991 3992 3993 3994 3995 
3996 3997 3998 3999 4000 4001 4002 4003 4004 
4005 4006 4007 4008 4009 4010 4011 4012 4013 
4014 4015 4016 4017 4018 4019 4020 4021 4022 
4023 4024 4025 4026 4027 4028 4029 4030 4031 
4032 4033 4034 4035 4036 4037 4038 4039 4040 
4041 4042 4043 4044 4045 4046 4047 4048 4049 
4050 4051 4052 4053 4054 4055 4056 4057 4058 
4059 4060 4061 4062 4063 4064 4065 4066 4067 
4068 4069 4070 4071 4072 4073 4074 4075 4076 
4077 4078 4079 4080 4081 4082 4083 4084 4085 
4086 4087 4088 4089 4090 4091 4092 4093 4094 
4095 4096 4097 4098 4099 4100 4101 4102 4103 
4104 4105 4106 4107 4108 4109 4110 4111 4112 
4113 4114 4115 4116 4117 4118 4119 4120 4121 
4122 4123 4124 4125 4126 4127 4128 4129 4130 
4131 4132 4133 4134 4135 4136 4137 4138 4139 
4140 4141 4142 4143 4144 4145 4146 4147 4148 
4149 4150 4151 4152 4153 4154 4155 4156 4157 
4158 4159 4160 4161 4162 4163 4164 4165 4166 
4167 4168 4169 4170 4171 4172 4173 4174 4175 
4176 4177 4178 4179 4180 4181 4182 4183 4184 
4185 4186 4187 4188 4189 4190 4191 4192 4193 
4194 4195 4196 4197 4198 4199 4200 4201 4202 
4203 4204 4205 4206 4207 4208 4209 4210 4211 
4212 4213 4214 4215 4216 4217 4218 4219 4220 
4221 4222 4223 4224 4225 4226 4227 4228 4229 
4230 4231 4232 4233 4234 4235 4236 4237 4238 
4239 4240 4241 4242 4243 4244 4245 4246 4247 
4248 4249 4250 4251 4252 4253 4254 4255 4256 
4257 4258 4259 4260 4261 4262 4263 4264 4265 
4266 4267 4268 4269 4270 4271 4272 4273 4274 
4275 4276 4277 4278 4279 4280 4281 4282 4283 
4284 4285 4286 4287 4288 4289 4290 4291 4292 
4293 4294 4295 4296 4297 4298 4299 4300 4301 
4302 4303 4304 4305 4306 4307 4308 4309 4310 
4311 4312 4313 4314 4315 4316 4317 4318 4319 
4320 4321 4322 4323 4324 4325 4326 4327 4328 
4329 4330 4331 4332 4333 4334 4335 4336 4337 
4338 4339 4340 4341 4342 4343 4344 4345 4346 
4347 4348 4349 4350 4351 4352 4353 4354 4355 
4356 4357 4358 4359 4360 4361 4362 4363 4364 
4365 4366 4367 4368 4369 4370 4371 4372 4373 
4374 4375 4376 4377 4378 4379 4380 4381 4382 
4383 4384 4385 4386 4387 4388 4389 4390 4391 
4392 4393 4394 4395 4396 4397 4398 4399 4400 
4401 4402 4403 4404 4405 4406 4407 4408 4409 
4410 4411 4412 4413 4414 4415 4416 4417 4418 
4419 4420 4421 4422 4423 4424 4425 4426 4427 
4428 4429 4430 4431 4432 4433 4434 4435 4436 
4437 4438 4439 4440 4441 4442 4443 4444 4445 
4446 4447 4448 4449 4450 4451 4452 4453 4454 
4455 4456 4457 4458 4459 4460 4461 4462 4463 
4464 4465 4466 4467 4468 4469 4470 4471 4472 
4473 4474 4475 4476 4477 4478 4479 4480 4481 
4482 4483 4484 4485 4486 4487 4488 4489 4490 
4491 4492 4493 4494 4495 4496 4497 4498 4499 
4500 4501 4502 4503 4504 4505 4506 4507 4508 
4509 4510 4511 4512 4513 4514 4515 4516 4517 
4518 4519 4520 4521 4522 4523 4524 4525 4526 
4527 4528 4529 4530 4531 4532 4533 4534 4535 
4536 4537 4538 4539 4540 4541 4542 4543 4544 
4545 4546 4547 4548 4549 4550 4551 4552 4553 
4554 4555 4556 4557 4558 4559 4560 4561 4562 
4563 4564 4565 4566 4567 4568 4569 4570 4571 
4572 4573 4574 4575 4576 4577 4578 4579 4580 
4581 4582 4583 4584 4585 4586 4587 4588 4589 
4590 4591 4592 4593 4594 4595 4596 4597 4598 
4599 4600 4601 4602 4603 4604 4605 4606 4607 
4608 4609 4610 4611 4612 4613 4614 4615 4616 
4617 4618 4619 4620 4621 4622 4623 4624 4625 
4626 4627 4628 4629 4630 4631 4632 4633 4634 
4635 4636 4637 4638 4639 4640 4641 4642 4643 
4644 4645 4646 4647 4648 4649 4650 4651 4652 
4653 4654 4655 4656 4657 4658 4659 4660 4661 
4662 4663 4664 4665 4666 4667 4668 4669 4670 
4671 4672 4673 4674 4675 4676 4677 4678 4679 
4680 4681 4682 4683 4684 4685 4686 4687 4688 
4689 4690 4691 4692 4693 4694 4695 4696 4697 
4698 4699 4700 4701 4702 4703 4704 4705 4706 
4707 4708 4709 4710 4711 4712 4713 4714 4715 
4716 4717 4718 4719 4720 4721 4722 4723 4724 
4725 4726 4727 4728 4729 4730 4731 4732 4733 
4734 4735 4736 4737 4738 4739 4740 4741 4742 
4743 4744 4745 4746 4747 4748 4749 4750 4751 
4752 4753 4754 4755 4756 4757 4758 4759 4760 
4761 4762 4763 4764 4765 4766 4767 4768 4769 
4770 4771 4772 4773 4774 4775 4776 4777 4778 
4779 4780 4781 4782 4783 4784 4785 4786 4787 
4788 4789 4790 4791 4792 4793 4794 4795 4796 
4797 4798 4799 4800 4801 4802 4803 4804 4805 
4806 4807 4808 4809 4810 4811 4812 4813 4814 
4815 4816 4817 4818 4819 4820 4821 4822 4823 
4824 4825 4826 4827 4828 4829 4830 4831 4832 
4833 4834 4835 4836 4837 4838 4839 4840 4841 
4842 4843 4844 4845 4846 4847 4848 4849 4850 
4851 4852 4853 4854 4855 4856 4857 4858 4859 
4860 4861 4862 4863 4864 4865 4866 4867 4868 
4869 4870 4871 4872 4873 4874 4875 4876 4877 
4878 4879 4880 4881 4882 4883 4884 4885 4886 
4887 4888 4889 4890 4891 4892 4893 4894 4895 
4896 4897 4898 4899 4900 4901 4902 4903 4904 
4905 4906 4907 4908 4909 4910 4911 4912 4913 
4914 4915 4916 4917 4918 4919 4920 4921 4922 
4923 4924 4925 4926 4927 4928 4929 4930 4931 
4932 4933 4934 4935 4936 4937 4938 4939 4940 
4941 4942 4943 4944 4945 4946 4947 4948 4949 
4950 4951 4952 4953 4954 4955 4956 4957 4958 
4959 4960 4961 4962 4963 4964 4965 4966 4967 
4968 4969 4970 4971 4972 4973 4974 4975 4976 
4977 4978 4979 4980 4981 4982 4983 4984 4985 
4986 4987 4988 4989 4990 4991 4992 4993 4994 
4995 4996 4997 4998 4999 5000 5001 5002 5003 
5004 5005 5006 5007 5008 5009 5010 5011 5012 
5013 5014 5015 5016 5017 5018 5019 5020 5021 
5022 5023 5024 5025 5026 5027 5028 5029 5030 
5031 5032 5033 5034 5035 5036 5037 5038 5039 
5040 5041 5042 5043 5044 5045 5046 5047 5048 
5049 5050 5051 5052 5053 5054 5055 5056 5057 
5058 5059 5060 5061 5062 5063 5064 5065 5066 
5067 5068 5069 5070 5071 5072 5073 5074 5075 
5076 5077 5078 5079 5080 5081 5082 5083 5084 
5085 5086 5087 5088 5089 5090 5091 5092 5093 
5094 5095 5096 5097 5098 5099 5100 5101 5102 
5103 5104 5105 5106 5107 5108 5109 5110 5111 
5112 5113 5114 5115 5116 5117 5118 5119 5120 
5121 5122 5123 5124 5125 5126 5127 5128 5129 
5130 5131 5132 5133 5134 5135 5136 5137 5138 
5139 5140 5141 5142 5143 5144 5145 5146 5147 
5148 5149 5150 5151 5152 5153 5154 5155 5156 
5157 5158 5159 5160 5161 5162 5163 5164 5165 
5166 5167 5168 5169 5170 5171 5172 5173 5174 
5175 5176 5177 5178 5179 5180 5181 5182 5183 
5184 5185 5186 5187 5188 5189 5190 5191 5192 
5193 5194 5195 5196 5197 5198 5199 5200 5201 
5202 5203 5204 5205 5206 5207 5208 5209 5210 
5211 5212 5213 5214 5215 5216 5217 5218 5219 
5220 5221 5222 5223 5224 5225 5226 5227 5228 
5229 5230 5231 5232 5233 5234 5235 5236 5237 
5238 5239 5240 5241 5242 5243 5244 5245 5246 
5247 5248 5249 5250 5251 5252 5253 5254 5255 
5256 5257 5258 5259 5260 5261 5262 5263 5264 
5265 5266 5267 5268 5269 5270 5271 5272 5273 
5274 5275 5276 5277 5278 5279 5280 5281 5282 
5283 5284 5285 5286 5287 5288 5289 5290 5291 
5292 5293 5294 5295 5296 5297 5298 5299 5300 
5301 5302 5303 5304 5305 5306 5307 5308 5309 
5310 5311 5312 5313 5314 5315 5316 5317 5318 
5319 5320 5321 5322 5323 5324 5325 5326 5327 
5328 5329 5330 5331 5332 5333 5334 5335 5336 
5337 5338 5339 5340 5341 5342 5343 5344 5345 
5346 5347 5348 5349 5350 5351 5352 5353 5354 
5355 5356 5357 5358 5359 5360 5361 5362 5363 
5364 5365 5366 5367 5368 5369 5370 5371 5372 
5373 5374 5375 5376 5377 5378 5379 5380 5381 
5382 5383 5384 5385 5386 5387 5388 5389 5390 
5391 5392 5393 5394 5395 5396 5397 5398 5399 
5400 5401 5402 5403 5404 5405 5406 5407 5408 
5409 5410 5411 5412 5413 5414 5415 5416 5417 
5418 5419 5420 5421 5422 5423 5424 5425 5426 
5427 5428 5429 5430 5431 5432 5433 5434 5435 
5436 5437 5438 5439 5440 5441 5442 5443 5444 
5445 5446 5447 5448 5449 5450 5451 5452 5453 
5454 5455 5456 5457 5458 5459 5460 5461 5462 
5463 5464 5465 5466 5467 5468 5469 5470 5471 
5472 5473 5474 5475 5476 5477 5478 5479 5480 
5481 5482 5483 5484 5485 5486 5487 5488 5489 
5490 5491 5492 5493 5494 5495 5496 5497 5498 
5499 5500 5501 5502 5503 5504 5505 5506 5507 
5508 5509 5510 5511 5512 5513 5514 5515 5516 
5517 5518 5519 5520 5521 5522 5523 5524 5525 
5526 5527 5528 5529 5530 5531 5532 5533 5534 
5535 5536 5537 5538 5539 5540 5541 5542 5543 
5544 5545 5546 5547 5548 5549 5550 5551 5552 
5553 5554 5555 5556 5557 5558 5559 5560 5561 
5562 5563 5564 5565 5566 5567 5568 5569 5570 
5571 5572 5573 5574 5575 5576 5577 5578 5579 
5580 5581 5582 5583 5584 5585 5586 5587 5588 
5589 5590 5591 5592 5593 5594 5595 5596 5597 
5598 5599 5600 5601 5602 5603 5604 5605 5606 
5607 5608 5609 5610 5611 5612 5613 5614 5615 
5616 5617 5618 5619 5620 5621 5622 5623 5624 
5625 5626 5627 5628 5629 5630 5631 5632 5633 
5634 5635 5636 5637 5638 5639 5640 5641 5642 
5643 5644 5645 5646 5647 5648 5649 5650 5651 
5652 5653 5654 5655 5656 5657 5658 5659 5660 
5661 5662 5663 5664 5665 5666 5667 5668 5669 
5670 5671 5672 5673 5674 5675 5676 5677 5678 
5679 5680 5681 5682 5683 5684 5685 5686 5687 
5688 5689 5690 5691 5692 5693 5694 5695 5696 
5697 5698 5699 5700 5701 5702 5703 5704 5705 
5706 5707 5708 5709 5710 5711 5712 5713 5714 
5715 5716 5717 5718 5719 5720 5721 5722 5723 
5724 5725 5726 5727 5728 5729 5730 5731 5732 
5733 5734 5735 5736 5737 5738 5739 5740 5741 
5742 5743 5744 5745 5746 5747 5748 5749 5750 
5751 5752 5753 5754 5755 5756 5757 5758 5759 
5760 5761 5762 5763 5764 5765 5766 5767 5768 
5769 5770 5771 5772 5773 5774 5775 5776 5777 
5778 5779 5780 5781 5782 5783 5784 5785 5786 
5787 5788 5789 5790 5791 5792 5793 5794 5795 
5796 5797 5798 5799 5800 5801 5802 5803 5804 
5805 5806 5807 5808 5809 5810 5811 5812 5813 
5814 5815 5816 5817 5818 5819 5820 5821 5822 
5823 5824 5825 5826 5827 5828 5829 5830 5831 
5832 5833 5834 5835 5836 5837 5838 5839 5840 
5841 5842 5843 5844 5845 5846 5847 5848 5849 
5850 5851 5852 5853 5854 5855 5856 5857 5858 
5859 5860 5861 5862 5863 5864 5865 5866 5867 
5868 5869 5870 5871 5872 5873 5874 5875 5876 
5877 5878 5879 5880 5881 5882 5883 5884 5885 
5886 5887 5888 5889 5890 5891 5892 5893 5894 
5895 5896 5897 5898 5899 5900 5901 5902 5903 
5904 5905 5906 5907 5908 5909 5910 5911 5912 
5913 5914 5915 5916 5917 5918 5919 5920 5921 
5922 5923 5924 5925 5926 5927 5928 5929 5930 
5931 5932 5933 5934 5935 5936 5937 5938 5939 
5940 5941 5942 5943 5944 5945 5946 5947 5948 
5949 5950 5951 5952 5953 5954 5955 5956 5957 
5958 5959 5960 5961 5962 5963 5964 5965 5966 
5967 5968 5969 5970 5971 5972 5973 5974 5975 
5976 5977 5978 5979 5980 5981 5982 5983 5984 
5985 5986 5987 5988 5989 5990 5991 5992 5993 
5994 5995 5996 5997 5998 5999 6000 6001 6002 
6003 6004 6005 6006 6007 6008 6009 6010 6011 
6012 6013 6014 6015 6016 6017 6018 6019 6020 
6021 6022 6023 6024 6025 6026 6027 6028 6029 
6030 6031 6032 6033 6034 6035 6036 6037 6038 
6039 6040 6041 6042 6043 6044 6045 6046 6047 
6048 6049 6050 6051 6052 6053 6054 6055 6056 
6057 6058 6059 6060 6061 6062 6063 6064 6065 
6066 6067 6068 6069 6070 6071 6072 6073 6074 
6075 6076 6077 6078 6079 6080 6081 6082 6083 
6084 6085 6086 6087 6088 6089 6090 6091 6092 
6093 6094 6095 6096 6097 6098 6099 6100 6101 
6102 6103 6104 6105 6106 6107 6108 6109 6110 
6111 6112 6113 6114 6115 6116 6117 6118 6119 
6120 6121 6122 6123 6124 6125 6126 6127 6128 
6129 6130 6131 6132 6133 6134 6135 6136 6137 
6138 6139 6140 6141 6142 6143 6144 6145 6146 
6147 6148 6149 6150 6151 6152 6153 6154 6155 
6156 6157 6158 6159 6160 6161 6162 6163 6164 
6165 6166 6167 6168 6169 6170 6171 6172 6173 
6174 6175 6176 6177 6178 6179 6180 6181 6182 
6183 6184 6185 6186 6187 6188 6189 6190 6191 
6192 6193 6194 6195 6196 6197 6198 6199 6200 
6201 6202 6203 6204 6205 6206 6207 6208 6209 
6210 6211 6212 6213 6214 6215 6216 6217 6218 
6219 6220 6221 6222 6223 6224 6225 6226 6227 
6228 6229 6230 6231 6232 6233 6234 6235 6236 
6237 6238 6239 6240 6241 6242 6243 6244 6245 
6246 6247 6248 6249 6250 6251 6252 6253 6254 
6255 6256 6257 6258 6259 6260 6261 6262 6263 
6264 6265 6266 6267 6268 6269 6270 6271 6272 
6273 6274 6275 6276 6277 6278 6279 6280 6281 
6282 6283 6284 6285 6286 6287 6288 6289 6290 
6291 6292 6293 6294 6295 6296 6297 6298 6299 
6300 6301 6302 6303 6304 6305 6306 6307 6308 
6309 6310 6311 6312 6313 6314 6315 6316 6317 
6318 6319 6320 6321 6322 6323 6324 6325 6326 
6327 6328 6329 6330 6331 6332 6333 6334 6335 
6336 6337 6338 6339 6340 6341 6342 6343 6344 
6345 6346 6347 6348 6349 6350 6351 6352 6353 
6354 6355 6356 6357 6358 6359 6360 6361 6362 
6363 6364 6365 6366 6367 6368 6369 6370 6371 
6372 6373 6374 6375 6376 6377 6378 6379 6380 
6381 6382 6383 6384 6385 6386 6387 6388 6389 
6390 6391 6392 6393 6394 6395 6396 6397 6398 
6399 6400 6401 6402 6403 6404 6405 6406 6407 
6408 6409 6410 6411 6412 6413 6414 6415 6416 
6417 6418 6419 6420 6421 6422 6423 6424 6425 
6426 6427 6428 6429 6430 6431 6432 6433 6434 
6435 6436 6437 6438 6439 6440 6441 6442 6443 
6444 6445 6446 6447 6448 6449 6450 6451 6452 
6453 6454 6455 6456 6457 6458 6459 6460 6461 
6462 6463 6464 6465 6466 6467 6468 6469 6470 
6471 6472 6473 6474 6475 6476 6477 6478 6479 
6480 6481 6482 6483 6484 6485 6486 6487 6488 