TITLE="TEST EXAMPLE"
VARIABLES="X","Y","Z","P","Q","T","V"
ZONE T="ZONE1", N=4, E=1, ET=QUADRILATERAL, DATAPACKING=FEBLOCK, VARLOCATION=([4,5-6]=CELLCENTERED)
0 1 1 0 2 2 1 1 0 0 0 0
1
1.2256
15
0.2 0.25 0.3 0.05
1 2 3 4
ZONE T="ZONE2", I=2, J=2, K=1, DATAPACKING=BLOCK, VARLOCATION=([4,5-6]=CELLCENTERED)
1 2 1 2 1 1 2 2 0 0 0 0
2
-1.2256
-15
0.2 0.25 0.3 0.05