    1C
    1UUSER                                                              
    1UDATE              02.march.2026                                   
    1UTIME              21:08:04                                        
    1UHOST                                                              
    1UPGM               CalculiX                                        
    1UVERSION           Version 2.23                             
    1UCOMPILETIME       Tue Feb 17 18:00:22     2026                    
    1UDIR                                                               
    1UDBN                                                               
    1UMAT    1STEEL                                                     
    2C                           756                                     1
 -1         1 5.00000E+01 5.00000E+01 0.00000E+00
 -1         2 5.00000E+01 4.00000E+01 0.00000E+00
 -1         3 5.00000E+01 4.00000E+01 1.00000E+01
 -1         4 5.00000E+01 5.00000E+01 1.00000E+01
 -1         5 4.00000E+01 5.00000E+01 0.00000E+00
 -1         6 4.00000E+01 4.00000E+01 0.00000E+00
 -1         7 4.00000E+01 4.00000E+01 1.00000E+01
 -1         8 4.00000E+01 5.00000E+01 1.00000E+01
 -1         9 5.00000E+01 4.50000E+01 0.00000E+00
 -1        10 5.00000E+01 4.00000E+01 5.00000E+00
 -1        11 5.00000E+01 4.50000E+01 1.00000E+01
 -1        12 5.00000E+01 5.00000E+01 5.00000E+00
 -1        13 4.50000E+01 5.00000E+01 0.00000E+00
 -1        14 4.50000E+01 4.00000E+01 0.00000E+00
 -1        15 4.50000E+01 4.00000E+01 1.00000E+01
 -1        16 4.50000E+01 5.00000E+01 1.00000E+01
 -1        17 4.00000E+01 4.50000E+01 0.00000E+00
 -1        18 4.00000E+01 4.00000E+01 5.00000E+00
 -1        19 4.00000E+01 4.50000E+01 1.00000E+01
 -1        20 4.00000E+01 5.00000E+01 5.00000E+00
 -1        21 5.00000E+01 4.00000E+01 2.00000E+01
 -1        22 5.00000E+01 5.00000E+01 2.00000E+01
 -1        23 4.00000E+01 4.00000E+01 2.00000E+01
 -1        24 4.00000E+01 5.00000E+01 2.00000E+01
 -1        25 5.00000E+01 4.00000E+01 1.50000E+01
 -1        26 5.00000E+01 4.50000E+01 2.00000E+01
 -1        27 5.00000E+01 5.00000E+01 1.50000E+01
 -1        28 4.50000E+01 4.00000E+01 2.00000E+01
 -1        29 4.50000E+01 5.00000E+01 2.00000E+01
 -1        30 4.00000E+01 4.00000E+01 1.50000E+01
 -1        31 4.00000E+01 4.50000E+01 2.00000E+01
 -1        32 4.00000E+01 5.00000E+01 1.50000E+01
 -1        33 5.00000E+01 4.00000E+01 3.00000E+01
 -1        34 5.00000E+01 5.00000E+01 3.00000E+01
 -1        35 4.00000E+01 4.00000E+01 3.00000E+01
 -1        36 4.00000E+01 5.00000E+01 3.00000E+01
 -1        37 5.00000E+01 4.00000E+01 2.50000E+01
 -1        38 5.00000E+01 4.50000E+01 3.00000E+01
 -1        39 5.00000E+01 5.00000E+01 2.50000E+01
 -1        40 4.50000E+01 4.00000E+01 3.00000E+01
 -1        41 4.50000E+01 5.00000E+01 3.00000E+01
 -1        42 4.00000E+01 4.00000E+01 2.50000E+01
 -1        43 4.00000E+01 4.50000E+01 3.00000E+01
 -1        44 4.00000E+01 5.00000E+01 2.50000E+01
 -1        45 5.00000E+01 4.00000E+01 4.00000E+01
 -1        46 5.00000E+01 5.00000E+01 4.00000E+01
 -1        47 4.00000E+01 4.00000E+01 4.00000E+01
 -1        48 4.00000E+01 5.00000E+01 4.00000E+01
 -1        49 5.00000E+01 4.00000E+01 3.50000E+01
 -1        50 5.00000E+01 4.50000E+01 4.00000E+01
 -1        51 5.00000E+01 5.00000E+01 3.50000E+01
 -1        52 4.50000E+01 4.00000E+01 4.00000E+01
 -1        53 4.50000E+01 5.00000E+01 4.00000E+01
 -1        54 4.00000E+01 4.00000E+01 3.50000E+01
 -1        55 4.00000E+01 4.50000E+01 4.00000E+01
 -1        56 4.00000E+01 5.00000E+01 3.50000E+01
 -1        57 5.00000E+01 4.00000E+01 5.00000E+01
 -1        58 5.00000E+01 5.00000E+01 5.00000E+01
 -1        59 4.00000E+01 4.00000E+01 5.00000E+01
 -1        60 4.00000E+01 5.00000E+01 5.00000E+01
 -1        61 5.00000E+01 4.00000E+01 4.50000E+01
 -1        62 5.00000E+01 4.50000E+01 5.00000E+01
 -1        63 5.00000E+01 5.00000E+01 4.50000E+01
 -1        64 4.50000E+01 4.00000E+01 5.00000E+01
 -1        65 4.50000E+01 5.00000E+01 5.00000E+01
 -1        66 4.00000E+01 4.00000E+01 4.50000E+01
 -1        67 4.00000E+01 4.50000E+01 5.00000E+01
 -1        68 4.00000E+01 5.00000E+01 4.50000E+01
 -1        69 3.00000E+01 5.00000E+01 0.00000E+00
 -1        70 3.00000E+01 4.00000E+01 0.00000E+00
 -1        71 3.00000E+01 4.00000E+01 1.00000E+01
 -1        72 3.00000E+01 5.00000E+01 1.00000E+01
 -1        73 3.50000E+01 5.00000E+01 0.00000E+00
 -1        74 3.50000E+01 4.00000E+01 0.00000E+00
 -1        75 3.50000E+01 4.00000E+01 1.00000E+01
 -1        76 3.50000E+01 5.00000E+01 1.00000E+01
 -1        77 3.00000E+01 4.50000E+01 0.00000E+00
 -1        78 3.00000E+01 4.00000E+01 5.00000E+00
 -1        79 3.00000E+01 4.50000E+01 1.00000E+01
 -1        80 3.00000E+01 5.00000E+01 5.00000E+00
 -1        81 3.00000E+01 4.00000E+01 2.00000E+01
 -1        82 3.00000E+01 5.00000E+01 2.00000E+01
 -1        83 3.50000E+01 4.00000E+01 2.00000E+01
 -1        84 3.50000E+01 5.00000E+01 2.00000E+01
 -1        85 3.00000E+01 4.00000E+01 1.50000E+01
 -1        86 3.00000E+01 4.50000E+01 2.00000E+01
 -1        87 3.00000E+01 5.00000E+01 1.50000E+01
 -1        88 3.00000E+01 4.00000E+01 3.00000E+01
 -1        89 3.00000E+01 5.00000E+01 3.00000E+01
 -1        90 3.50000E+01 4.00000E+01 3.00000E+01
 -1        91 3.50000E+01 5.00000E+01 3.00000E+01
 -1        92 3.00000E+01 4.00000E+01 2.50000E+01
 -1        93 3.00000E+01 4.50000E+01 3.00000E+01
 -1        94 3.00000E+01 5.00000E+01 2.50000E+01
 -1        95 3.00000E+01 4.00000E+01 4.00000E+01
 -1        96 3.00000E+01 5.00000E+01 4.00000E+01
 -1        97 3.50000E+01 4.00000E+01 4.00000E+01
 -1        98 3.50000E+01 5.00000E+01 4.00000E+01
 -1        99 3.00000E+01 4.00000E+01 3.50000E+01
 -1       100 3.00000E+01 4.50000E+01 4.00000E+01
 -1       101 3.00000E+01 5.00000E+01 3.50000E+01
 -1       102 3.00000E+01 4.00000E+01 5.00000E+01
 -1       103 3.00000E+01 5.00000E+01 5.00000E+01
 -1       104 3.50000E+01 4.00000E+01 5.00000E+01
 -1       105 3.50000E+01 5.00000E+01 5.00000E+01
 -1       106 3.00000E+01 4.00000E+01 4.50000E+01
 -1       107 3.00000E+01 4.50000E+01 5.00000E+01
 -1       108 3.00000E+01 5.00000E+01 4.50000E+01
 -1       109 2.00000E+01 5.00000E+01 0.00000E+00
 -1       110 2.00000E+01 4.00000E+01 0.00000E+00
 -1       111 2.00000E+01 4.00000E+01 1.00000E+01
 -1       112 2.00000E+01 5.00000E+01 1.00000E+01
 -1       113 2.50000E+01 5.00000E+01 0.00000E+00
 -1       114 2.50000E+01 4.00000E+01 0.00000E+00
 -1       115 2.50000E+01 4.00000E+01 1.00000E+01
 -1       116 2.50000E+01 5.00000E+01 1.00000E+01
 -1       117 2.00000E+01 4.50000E+01 0.00000E+00
 -1       118 2.00000E+01 4.00000E+01 5.00000E+00
 -1       119 2.00000E+01 4.50000E+01 1.00000E+01
 -1       120 2.00000E+01 5.00000E+01 5.00000E+00
 -1       121 2.00000E+01 4.00000E+01 2.00000E+01
 -1       122 2.00000E+01 5.00000E+01 2.00000E+01
 -1       123 2.50000E+01 4.00000E+01 2.00000E+01
 -1       124 2.50000E+01 5.00000E+01 2.00000E+01
 -1       125 2.00000E+01 4.00000E+01 1.50000E+01
 -1       126 2.00000E+01 4.50000E+01 2.00000E+01
 -1       127 2.00000E+01 5.00000E+01 1.50000E+01
 -1       128 2.00000E+01 4.00000E+01 3.00000E+01
 -1       129 2.00000E+01 5.00000E+01 3.00000E+01
 -1       130 2.50000E+01 4.00000E+01 3.00000E+01
 -1       131 2.50000E+01 5.00000E+01 3.00000E+01
 -1       132 2.00000E+01 4.00000E+01 2.50000E+01
 -1       133 2.00000E+01 4.50000E+01 3.00000E+01
 -1       134 2.00000E+01 5.00000E+01 2.50000E+01
 -1       135 2.00000E+01 4.00000E+01 4.00000E+01
 -1       136 2.00000E+01 5.00000E+01 4.00000E+01
 -1       137 2.50000E+01 4.00000E+01 4.00000E+01
 -1       138 2.50000E+01 5.00000E+01 4.00000E+01
 -1       139 2.00000E+01 4.00000E+01 3.50000E+01
 -1       140 2.00000E+01 4.50000E+01 4.00000E+01
 -1       141 2.00000E+01 5.00000E+01 3.50000E+01
 -1       142 2.00000E+01 4.00000E+01 5.00000E+01
 -1       143 2.00000E+01 5.00000E+01 5.00000E+01
 -1       144 2.50000E+01 4.00000E+01 5.00000E+01
 -1       145 2.50000E+01 5.00000E+01 5.00000E+01
 -1       146 2.00000E+01 4.00000E+01 4.50000E+01
 -1       147 2.00000E+01 4.50000E+01 5.00000E+01
 -1       148 2.00000E+01 5.00000E+01 4.50000E+01
 -1       149 1.00000E+01 5.00000E+01 0.00000E+00
 -1       150 1.00000E+01 4.00000E+01 0.00000E+00
 -1       151 1.00000E+01 4.00000E+01 1.00000E+01
 -1       152 1.00000E+01 5.00000E+01 1.00000E+01
 -1       153 1.50000E+01 5.00000E+01 0.00000E+00
 -1       154 1.50000E+01 4.00000E+01 0.00000E+00
 -1       155 1.50000E+01 4.00000E+01 1.00000E+01
 -1       156 1.50000E+01 5.00000E+01 1.00000E+01
 -1       157 1.00000E+01 4.50000E+01 0.00000E+00
 -1       158 1.00000E+01 4.00000E+01 5.00000E+00
 -1       159 1.00000E+01 4.50000E+01 1.00000E+01
 -1       160 1.00000E+01 5.00000E+01 5.00000E+00
 -1       161 1.00000E+01 4.00000E+01 2.00000E+01
 -1       162 1.00000E+01 5.00000E+01 2.00000E+01
 -1       163 1.50000E+01 4.00000E+01 2.00000E+01
 -1       164 1.50000E+01 5.00000E+01 2.00000E+01
 -1       165 1.00000E+01 4.00000E+01 1.50000E+01
 -1       166 1.00000E+01 4.50000E+01 2.00000E+01
 -1       167 1.00000E+01 5.00000E+01 1.50000E+01
 -1       168 1.00000E+01 4.00000E+01 3.00000E+01
 -1       169 1.00000E+01 5.00000E+01 3.00000E+01
 -1       170 1.50000E+01 4.00000E+01 3.00000E+01
 -1       171 1.50000E+01 5.00000E+01 3.00000E+01
 -1       172 1.00000E+01 4.00000E+01 2.50000E+01
 -1       173 1.00000E+01 4.50000E+01 3.00000E+01
 -1       174 1.00000E+01 5.00000E+01 2.50000E+01
 -1       175 1.00000E+01 4.00000E+01 4.00000E+01
 -1       176 1.00000E+01 5.00000E+01 4.00000E+01
 -1       177 1.50000E+01 4.00000E+01 4.00000E+01
 -1       178 1.50000E+01 5.00000E+01 4.00000E+01
 -1       179 1.00000E+01 4.00000E+01 3.50000E+01
 -1       180 1.00000E+01 4.50000E+01 4.00000E+01
 -1       181 1.00000E+01 5.00000E+01 3.50000E+01
 -1       182 1.00000E+01 4.00000E+01 5.00000E+01
 -1       183 1.00000E+01 5.00000E+01 5.00000E+01
 -1       184 1.50000E+01 4.00000E+01 5.00000E+01
 -1       185 1.50000E+01 5.00000E+01 5.00000E+01
 -1       186 1.00000E+01 4.00000E+01 4.50000E+01
 -1       187 1.00000E+01 4.50000E+01 5.00000E+01
 -1       188 1.00000E+01 5.00000E+01 4.50000E+01
 -1       189 0.00000E+00 5.00000E+01 0.00000E+00
 -1       190 0.00000E+00 4.00000E+01 0.00000E+00
 -1       191 0.00000E+00 4.00000E+01 1.00000E+01
 -1       192 0.00000E+00 5.00000E+01 1.00000E+01
 -1       193 5.00000E+00 5.00000E+01 0.00000E+00
 -1       194 5.00000E+00 4.00000E+01 0.00000E+00
 -1       195 5.00000E+00 4.00000E+01 1.00000E+01
 -1       196 5.00000E+00 5.00000E+01 1.00000E+01
 -1       197 0.00000E+00 4.50000E+01 0.00000E+00
 -1       198 0.00000E+00 4.00000E+01 5.00000E+00
 -1       199 0.00000E+00 4.50000E+01 1.00000E+01
 -1       200 0.00000E+00 5.00000E+01 5.00000E+00
 -1       201 0.00000E+00 4.00000E+01 2.00000E+01
 -1       202 0.00000E+00 5.00000E+01 2.00000E+01
 -1       203 5.00000E+00 4.00000E+01 2.00000E+01
 -1       204 5.00000E+00 5.00000E+01 2.00000E+01
 -1       205 0.00000E+00 4.00000E+01 1.50000E+01
 -1       206 0.00000E+00 4.50000E+01 2.00000E+01
 -1       207 0.00000E+00 5.00000E+01 1.50000E+01
 -1       208 0.00000E+00 4.00000E+01 3.00000E+01
 -1       209 0.00000E+00 5.00000E+01 3.00000E+01
 -1       210 5.00000E+00 4.00000E+01 3.00000E+01
 -1       211 5.00000E+00 5.00000E+01 3.00000E+01
 -1       212 0.00000E+00 4.00000E+01 2.50000E+01
 -1       213 0.00000E+00 4.50000E+01 3.00000E+01
 -1       214 0.00000E+00 5.00000E+01 2.50000E+01
 -1       215 0.00000E+00 4.00000E+01 4.00000E+01
 -1       216 0.00000E+00 5.00000E+01 4.00000E+01
 -1       217 5.00000E+00 4.00000E+01 4.00000E+01
 -1       218 5.00000E+00 5.00000E+01 4.00000E+01
 -1       219 0.00000E+00 4.00000E+01 3.50000E+01
 -1       220 0.00000E+00 4.50000E+01 4.00000E+01
 -1       221 0.00000E+00 5.00000E+01 3.50000E+01
 -1       222 0.00000E+00 4.00000E+01 5.00000E+01
 -1       223 0.00000E+00 5.00000E+01 5.00000E+01
 -1       224 5.00000E+00 4.00000E+01 5.00000E+01
 -1       225 5.00000E+00 5.00000E+01 5.00000E+01
 -1       226 0.00000E+00 4.00000E+01 4.50000E+01
 -1       227 0.00000E+00 4.50000E+01 5.00000E+01
 -1       228 0.00000E+00 5.00000E+01 4.50000E+01
 -1       229 5.00000E+01 3.00000E+01 0.00000E+00
 -1       230 5.00000E+01 3.00000E+01 1.00000E+01
 -1       231 4.00000E+01 3.00000E+01 0.00000E+00
 -1       232 4.00000E+01 3.00000E+01 1.00000E+01
 -1       233 5.00000E+01 3.50000E+01 0.00000E+00
 -1       234 5.00000E+01 3.00000E+01 5.00000E+00
 -1       235 5.00000E+01 3.50000E+01 1.00000E+01
 -1       236 4.50000E+01 3.00000E+01 0.00000E+00
 -1       237 4.50000E+01 3.00000E+01 1.00000E+01
 -1       238 4.00000E+01 3.50000E+01 0.00000E+00
 -1       239 4.00000E+01 3.00000E+01 5.00000E+00
 -1       240 4.00000E+01 3.50000E+01 1.00000E+01
 -1       241 5.00000E+01 3.00000E+01 2.00000E+01
 -1       242 4.00000E+01 3.00000E+01 2.00000E+01
 -1       243 5.00000E+01 3.00000E+01 1.50000E+01
 -1       244 5.00000E+01 3.50000E+01 2.00000E+01
 -1       245 4.50000E+01 3.00000E+01 2.00000E+01
 -1       246 4.00000E+01 3.00000E+01 1.50000E+01
 -1       247 4.00000E+01 3.50000E+01 2.00000E+01
 -1       248 5.00000E+01 3.00000E+01 3.00000E+01
 -1       249 4.00000E+01 3.00000E+01 3.00000E+01
 -1       250 5.00000E+01 3.00000E+01 2.50000E+01
 -1       251 5.00000E+01 3.50000E+01 3.00000E+01
 -1       252 4.50000E+01 3.00000E+01 3.00000E+01
 -1       253 4.00000E+01 3.00000E+01 2.50000E+01
 -1       254 4.00000E+01 3.50000E+01 3.00000E+01
 -1       255 5.00000E+01 3.00000E+01 4.00000E+01
 -1       256 4.00000E+01 3.00000E+01 4.00000E+01
 -1       257 5.00000E+01 3.00000E+01 3.50000E+01
 -1       258 5.00000E+01 3.50000E+01 4.00000E+01
 -1       259 4.50000E+01 3.00000E+01 4.00000E+01
 -1       260 4.00000E+01 3.00000E+01 3.50000E+01
 -1       261 4.00000E+01 3.50000E+01 4.00000E+01
 -1       262 5.00000E+01 3.00000E+01 5.00000E+01
 -1       263 4.00000E+01 3.00000E+01 5.00000E+01
 -1       264 5.00000E+01 3.00000E+01 4.50000E+01
 -1       265 5.00000E+01 3.50000E+01 5.00000E+01
 -1       266 4.50000E+01 3.00000E+01 5.00000E+01
 -1       267 4.00000E+01 3.00000E+01 4.50000E+01
 -1       268 4.00000E+01 3.50000E+01 5.00000E+01
 -1       269 3.00000E+01 3.00000E+01 0.00000E+00
 -1       270 3.00000E+01 3.00000E+01 1.00000E+01
 -1       271 3.50000E+01 3.00000E+01 0.00000E+00
 -1       272 3.50000E+01 3.00000E+01 1.00000E+01
 -1       273 3.00000E+01 3.50000E+01 0.00000E+00
 -1       274 3.00000E+01 3.00000E+01 5.00000E+00
 -1       275 3.00000E+01 3.50000E+01 1.00000E+01
 -1       276 3.00000E+01 3.00000E+01 2.00000E+01
 -1       277 3.50000E+01 3.00000E+01 2.00000E+01
 -1       278 3.00000E+01 3.00000E+01 1.50000E+01
 -1       279 3.00000E+01 3.50000E+01 2.00000E+01
 -1       280 3.00000E+01 3.00000E+01 3.00000E+01
 -1       281 3.50000E+01 3.00000E+01 3.00000E+01
 -1       282 3.00000E+01 3.00000E+01 2.50000E+01
 -1       283 3.00000E+01 3.50000E+01 3.00000E+01
 -1       284 3.00000E+01 3.00000E+01 4.00000E+01
 -1       285 3.50000E+01 3.00000E+01 4.00000E+01
 -1       286 3.00000E+01 3.00000E+01 3.50000E+01
 -1       287 3.00000E+01 3.50000E+01 4.00000E+01
 -1       288 3.00000E+01 3.00000E+01 5.00000E+01
 -1       289 3.50000E+01 3.00000E+01 5.00000E+01
 -1       290 3.00000E+01 3.00000E+01 4.50000E+01
 -1       291 3.00000E+01 3.50000E+01 5.00000E+01
 -1       292 2.00000E+01 3.00000E+01 0.00000E+00
 -1       293 2.00000E+01 3.00000E+01 1.00000E+01
 -1       294 2.50000E+01 3.00000E+01 0.00000E+00
 -1       295 2.50000E+01 3.00000E+01 1.00000E+01
 -1       296 2.00000E+01 3.50000E+01 0.00000E+00
 -1       297 2.00000E+01 3.00000E+01 5.00000E+00
 -1       298 2.00000E+01 3.50000E+01 1.00000E+01
 -1       299 2.00000E+01 3.00000E+01 2.00000E+01
 -1       300 2.50000E+01 3.00000E+01 2.00000E+01
 -1       301 2.00000E+01 3.00000E+01 1.50000E+01
 -1       302 2.00000E+01 3.50000E+01 2.00000E+01
 -1       303 2.00000E+01 3.00000E+01 3.00000E+01
 -1       304 2.50000E+01 3.00000E+01 3.00000E+01
 -1       305 2.00000E+01 3.00000E+01 2.50000E+01
 -1       306 2.00000E+01 3.50000E+01 3.00000E+01
 -1       307 2.00000E+01 3.00000E+01 4.00000E+01
 -1       308 2.50000E+01 3.00000E+01 4.00000E+01
 -1       309 2.00000E+01 3.00000E+01 3.50000E+01
 -1       310 2.00000E+01 3.50000E+01 4.00000E+01
 -1       311 2.00000E+01 3.00000E+01 5.00000E+01
 -1       312 2.50000E+01 3.00000E+01 5.00000E+01
 -1       313 2.00000E+01 3.00000E+01 4.50000E+01
 -1       314 2.00000E+01 3.50000E+01 5.00000E+01
 -1       315 1.00000E+01 3.00000E+01 0.00000E+00
 -1       316 1.00000E+01 3.00000E+01 1.00000E+01
 -1       317 1.50000E+01 3.00000E+01 0.00000E+00
 -1       318 1.50000E+01 3.00000E+01 1.00000E+01
 -1       319 1.00000E+01 3.50000E+01 0.00000E+00
 -1       320 1.00000E+01 3.00000E+01 5.00000E+00
 -1       321 1.00000E+01 3.50000E+01 1.00000E+01
 -1       322 1.00000E+01 3.00000E+01 2.00000E+01
 -1       323 1.50000E+01 3.00000E+01 2.00000E+01
 -1       324 1.00000E+01 3.00000E+01 1.50000E+01
 -1       325 1.00000E+01 3.50000E+01 2.00000E+01
 -1       326 1.00000E+01 3.00000E+01 3.00000E+01
 -1       327 1.50000E+01 3.00000E+01 3.00000E+01
 -1       328 1.00000E+01 3.00000E+01 2.50000E+01
 -1       329 1.00000E+01 3.50000E+01 3.00000E+01
 -1       330 1.00000E+01 3.00000E+01 4.00000E+01
 -1       331 1.50000E+01 3.00000E+01 4.00000E+01
 -1       332 1.00000E+01 3.00000E+01 3.50000E+01
 -1       333 1.00000E+01 3.50000E+01 4.00000E+01
 -1       334 1.00000E+01 3.00000E+01 5.00000E+01
 -1       335 1.50000E+01 3.00000E+01 5.00000E+01
 -1       336 1.00000E+01 3.00000E+01 4.50000E+01
 -1       337 1.00000E+01 3.50000E+01 5.00000E+01
 -1       338 0.00000E+00 3.00000E+01 0.00000E+00
 -1       339 0.00000E+00 3.00000E+01 1.00000E+01
 -1       340 5.00000E+00 3.00000E+01 0.00000E+00
 -1       341 5.00000E+00 3.00000E+01 1.00000E+01
 -1       342 0.00000E+00 3.50000E+01 0.00000E+00
 -1       343 0.00000E+00 3.00000E+01 5.00000E+00
 -1       344 0.00000E+00 3.50000E+01 1.00000E+01
 -1       345 0.00000E+00 3.00000E+01 2.00000E+01
 -1       346 5.00000E+00 3.00000E+01 2.00000E+01
 -1       347 0.00000E+00 3.00000E+01 1.50000E+01
 -1       348 0.00000E+00 3.50000E+01 2.00000E+01
 -1       349 0.00000E+00 3.00000E+01 3.00000E+01
 -1       350 5.00000E+00 3.00000E+01 3.00000E+01
 -1       351 0.00000E+00 3.00000E+01 2.50000E+01
 -1       352 0.00000E+00 3.50000E+01 3.00000E+01
 -1       353 0.00000E+00 3.00000E+01 4.00000E+01
 -1       354 5.00000E+00 3.00000E+01 4.00000E+01
 -1       355 0.00000E+00 3.00000E+01 3.50000E+01
 -1       356 0.00000E+00 3.50000E+01 4.00000E+01
 -1       357 0.00000E+00 3.00000E+01 5.00000E+01
 -1       358 5.00000E+00 3.00000E+01 5.00000E+01
 -1       359 0.00000E+00 3.00000E+01 4.50000E+01
 -1       360 0.00000E+00 3.50000E+01 5.00000E+01
 -1       361 5.00000E+01 2.00000E+01 0.00000E+00
 -1       362 5.00000E+01 2.00000E+01 1.00000E+01
 -1       363 4.00000E+01 2.00000E+01 0.00000E+00
 -1       364 4.00000E+01 2.00000E+01 1.00000E+01
 -1       365 5.00000E+01 2.50000E+01 0.00000E+00
 -1       366 5.00000E+01 2.00000E+01 5.00000E+00
 -1       367 5.00000E+01 2.50000E+01 1.00000E+01
 -1       368 4.50000E+01 2.00000E+01 0.00000E+00
 -1       369 4.50000E+01 2.00000E+01 1.00000E+01
 -1       370 4.00000E+01 2.50000E+01 0.00000E+00
 -1       371 4.00000E+01 2.00000E+01 5.00000E+00
 -1       372 4.00000E+01 2.50000E+01 1.00000E+01
 -1       373 5.00000E+01 2.00000E+01 2.00000E+01
 -1       374 4.00000E+01 2.00000E+01 2.00000E+01
 -1       375 5.00000E+01 2.00000E+01 1.50000E+01
 -1       376 5.00000E+01 2.50000E+01 2.00000E+01
 -1       377 4.50000E+01 2.00000E+01 2.00000E+01
 -1       378 4.00000E+01 2.00000E+01 1.50000E+01
 -1       379 4.00000E+01 2.50000E+01 2.00000E+01
 -1       380 5.00000E+01 2.00000E+01 3.00000E+01
 -1       381 4.00000E+01 2.00000E+01 3.00000E+01
 -1       382 5.00000E+01 2.00000E+01 2.50000E+01
 -1       383 5.00000E+01 2.50000E+01 3.00000E+01
 -1       384 4.50000E+01 2.00000E+01 3.00000E+01
 -1       385 4.00000E+01 2.00000E+01 2.50000E+01
 -1       386 4.00000E+01 2.50000E+01 3.00000E+01
 -1       387 5.00000E+01 2.00000E+01 4.00000E+01
 -1       388 4.00000E+01 2.00000E+01 4.00000E+01
 -1       389 5.00000E+01 2.00000E+01 3.50000E+01
 -1       390 5.00000E+01 2.50000E+01 4.00000E+01
 -1       391 4.50000E+01 2.00000E+01 4.00000E+01
 -1       392 4.00000E+01 2.00000E+01 3.50000E+01
 -1       393 4.00000E+01 2.50000E+01 4.00000E+01
 -1       394 5.00000E+01 2.00000E+01 5.00000E+01
 -1       395 4.00000E+01 2.00000E+01 5.00000E+01
 -1       396 5.00000E+01 2.00000E+01 4.50000E+01
 -1       397 5.00000E+01 2.50000E+01 5.00000E+01
 -1       398 4.50000E+01 2.00000E+01 5.00000E+01
 -1       399 4.00000E+01 2.00000E+01 4.50000E+01
 -1       400 4.00000E+01 2.50000E+01 5.00000E+01
 -1       401 3.00000E+01 2.00000E+01 0.00000E+00
 -1       402 3.00000E+01 2.00000E+01 1.00000E+01
 -1       403 3.50000E+01 2.00000E+01 0.00000E+00
 -1       404 3.50000E+01 2.00000E+01 1.00000E+01
 -1       405 3.00000E+01 2.50000E+01 0.00000E+00
 -1       406 3.00000E+01 2.00000E+01 5.00000E+00
 -1       407 3.00000E+01 2.50000E+01 1.00000E+01
 -1       408 3.00000E+01 2.00000E+01 2.00000E+01
 -1       409 3.50000E+01 2.00000E+01 2.00000E+01
 -1       410 3.00000E+01 2.00000E+01 1.50000E+01
 -1       411 3.00000E+01 2.50000E+01 2.00000E+01
 -1       412 3.00000E+01 2.00000E+01 3.00000E+01
 -1       413 3.50000E+01 2.00000E+01 3.00000E+01
 -1       414 3.00000E+01 2.00000E+01 2.50000E+01
 -1       415 3.00000E+01 2.50000E+01 3.00000E+01
 -1       416 3.00000E+01 2.00000E+01 4.00000E+01
 -1       417 3.50000E+01 2.00000E+01 4.00000E+01
 -1       418 3.00000E+01 2.00000E+01 3.50000E+01
 -1       419 3.00000E+01 2.50000E+01 4.00000E+01
 -1       420 3.00000E+01 2.00000E+01 5.00000E+01
 -1       421 3.50000E+01 2.00000E+01 5.00000E+01
 -1       422 3.00000E+01 2.00000E+01 4.50000E+01
 -1       423 3.00000E+01 2.50000E+01 5.00000E+01
 -1       424 2.00000E+01 2.00000E+01 0.00000E+00
 -1       425 2.00000E+01 2.00000E+01 1.00000E+01
 -1       426 2.50000E+01 2.00000E+01 0.00000E+00
 -1       427 2.50000E+01 2.00000E+01 1.00000E+01
 -1       428 2.00000E+01 2.50000E+01 0.00000E+00
 -1       429 2.00000E+01 2.00000E+01 5.00000E+00
 -1       430 2.00000E+01 2.50000E+01 1.00000E+01
 -1       431 2.00000E+01 2.00000E+01 2.00000E+01
 -1       432 2.50000E+01 2.00000E+01 2.00000E+01
 -1       433 2.00000E+01 2.00000E+01 1.50000E+01
 -1       434 2.00000E+01 2.50000E+01 2.00000E+01
 -1       435 2.00000E+01 2.00000E+01 3.00000E+01
 -1       436 2.50000E+01 2.00000E+01 3.00000E+01
 -1       437 2.00000E+01 2.00000E+01 2.50000E+01
 -1       438 2.00000E+01 2.50000E+01 3.00000E+01
 -1       439 2.00000E+01 2.00000E+01 4.00000E+01
 -1       440 2.50000E+01 2.00000E+01 4.00000E+01
 -1       441 2.00000E+01 2.00000E+01 3.50000E+01
 -1       442 2.00000E+01 2.50000E+01 4.00000E+01
 -1       443 2.00000E+01 2.00000E+01 5.00000E+01
 -1       444 2.50000E+01 2.00000E+01 5.00000E+01
 -1       445 2.00000E+01 2.00000E+01 4.50000E+01
 -1       446 2.00000E+01 2.50000E+01 5.00000E+01
 -1       447 1.00000E+01 2.00000E+01 0.00000E+00
 -1       448 1.00000E+01 2.00000E+01 1.00000E+01
 -1       449 1.50000E+01 2.00000E+01 0.00000E+00
 -1       450 1.50000E+01 2.00000E+01 1.00000E+01
 -1       451 1.00000E+01 2.50000E+01 0.00000E+00
 -1       452 1.00000E+01 2.00000E+01 5.00000E+00
 -1       453 1.00000E+01 2.50000E+01 1.00000E+01
 -1       454 1.00000E+01 2.00000E+01 2.00000E+01
 -1       455 1.50000E+01 2.00000E+01 2.00000E+01
 -1       456 1.00000E+01 2.00000E+01 1.50000E+01
 -1       457 1.00000E+01 2.50000E+01 2.00000E+01
 -1       458 1.00000E+01 2.00000E+01 3.00000E+01
 -1       459 1.50000E+01 2.00000E+01 3.00000E+01
 -1       460 1.00000E+01 2.00000E+01 2.50000E+01
 -1       461 1.00000E+01 2.50000E+01 3.00000E+01
 -1       462 1.00000E+01 2.00000E+01 4.00000E+01
 -1       463 1.50000E+01 2.00000E+01 4.00000E+01
 -1       464 1.00000E+01 2.00000E+01 3.50000E+01
 -1       465 1.00000E+01 2.50000E+01 4.00000E+01
 -1       466 1.00000E+01 2.00000E+01 5.00000E+01
 -1       467 1.50000E+01 2.00000E+01 5.00000E+01
 -1       468 1.00000E+01 2.00000E+01 4.50000E+01
 -1       469 1.00000E+01 2.50000E+01 5.00000E+01
 -1       470 0.00000E+00 2.00000E+01 0.00000E+00
 -1       471 0.00000E+00 2.00000E+01 1.00000E+01
 -1       472 5.00000E+00 2.00000E+01 0.00000E+00
 -1       473 5.00000E+00 2.00000E+01 1.00000E+01
 -1       474 0.00000E+00 2.50000E+01 0.00000E+00
 -1       475 0.00000E+00 2.00000E+01 5.00000E+00
 -1       476 0.00000E+00 2.50000E+01 1.00000E+01
 -1       477 0.00000E+00 2.00000E+01 2.00000E+01
 -1       478 5.00000E+00 2.00000E+01 2.00000E+01
 -1       479 0.00000E+00 2.00000E+01 1.50000E+01
 -1       480 0.00000E+00 2.50000E+01 2.00000E+01
 -1       481 0.00000E+00 2.00000E+01 3.00000E+01
 -1       482 5.00000E+00 2.00000E+01 3.00000E+01
 -1       483 0.00000E+00 2.00000E+01 2.50000E+01
 -1       484 0.00000E+00 2.50000E+01 3.00000E+01
 -1       485 0.00000E+00 2.00000E+01 4.00000E+01
 -1       486 5.00000E+00 2.00000E+01 4.00000E+01
 -1       487 0.00000E+00 2.00000E+01 3.50000E+01
 -1       488 0.00000E+00 2.50000E+01 4.00000E+01
 -1       489 0.00000E+00 2.00000E+01 5.00000E+01
 -1       490 5.00000E+00 2.00000E+01 5.00000E+01
 -1       491 0.00000E+00 2.00000E+01 4.50000E+01
 -1       492 0.00000E+00 2.50000E+01 5.00000E+01
 -1       493 5.00000E+01 1.00000E+01 0.00000E+00
 -1       494 5.00000E+01 1.00000E+01 1.00000E+01
 -1       495 4.00000E+01 1.00000E+01 0.00000E+00
 -1       496 4.00000E+01 1.00000E+01 1.00000E+01
 -1       497 5.00000E+01 1.50000E+01 0.00000E+00
 -1       498 5.00000E+01 1.00000E+01 5.00000E+00
 -1       499 5.00000E+01 1.50000E+01 1.00000E+01
 -1       500 4.50000E+01 1.00000E+01 0.00000E+00
 -1       501 4.50000E+01 1.00000E+01 1.00000E+01
 -1       502 4.00000E+01 1.50000E+01 0.00000E+00
 -1       503 4.00000E+01 1.00000E+01 5.00000E+00
 -1       504 4.00000E+01 1.50000E+01 1.00000E+01
 -1       505 5.00000E+01 1.00000E+01 2.00000E+01
 -1       506 4.00000E+01 1.00000E+01 2.00000E+01
 -1       507 5.00000E+01 1.00000E+01 1.50000E+01
 -1       508 5.00000E+01 1.50000E+01 2.00000E+01
 -1       509 4.50000E+01 1.00000E+01 2.00000E+01
 -1       510 4.00000E+01 1.00000E+01 1.50000E+01
 -1       511 4.00000E+01 1.50000E+01 2.00000E+01
 -1       512 5.00000E+01 1.00000E+01 3.00000E+01
 -1       513 4.00000E+01 1.00000E+01 3.00000E+01
 -1       514 5.00000E+01 1.00000E+01 2.50000E+01
 -1       515 5.00000E+01 1.50000E+01 3.00000E+01
 -1       516 4.50000E+01 1.00000E+01 3.00000E+01
 -1       517 4.00000E+01 1.00000E+01 2.50000E+01
 -1       518 4.00000E+01 1.50000E+01 3.00000E+01
 -1       519 5.00000E+01 1.00000E+01 4.00000E+01
 -1       520 4.00000E+01 1.00000E+01 4.00000E+01
 -1       521 5.00000E+01 1.00000E+01 3.50000E+01
 -1       522 5.00000E+01 1.50000E+01 4.00000E+01
 -1       523 4.50000E+01 1.00000E+01 4.00000E+01
 -1       524 4.00000E+01 1.00000E+01 3.50000E+01
 -1       525 4.00000E+01 1.50000E+01 4.00000E+01
 -1       526 5.00000E+01 1.00000E+01 5.00000E+01
 -1       527 4.00000E+01 1.00000E+01 5.00000E+01
 -1       528 5.00000E+01 1.00000E+01 4.50000E+01
 -1       529 5.00000E+01 1.50000E+01 5.00000E+01
 -1       530 4.50000E+01 1.00000E+01 5.00000E+01
 -1       531 4.00000E+01 1.00000E+01 4.50000E+01
 -1       532 4.00000E+01 1.50000E+01 5.00000E+01
 -1       533 3.00000E+01 1.00000E+01 0.00000E+00
 -1       534 3.00000E+01 1.00000E+01 1.00000E+01
 -1       535 3.50000E+01 1.00000E+01 0.00000E+00
 -1       536 3.50000E+01 1.00000E+01 1.00000E+01
 -1       537 3.00000E+01 1.50000E+01 0.00000E+00
 -1       538 3.00000E+01 1.00000E+01 5.00000E+00
 -1       539 3.00000E+01 1.50000E+01 1.00000E+01
 -1       540 3.00000E+01 1.00000E+01 2.00000E+01
 -1       541 3.50000E+01 1.00000E+01 2.00000E+01
 -1       542 3.00000E+01 1.00000E+01 1.50000E+01
 -1       543 3.00000E+01 1.50000E+01 2.00000E+01
 -1       544 3.00000E+01 1.00000E+01 3.00000E+01
 -1       545 3.50000E+01 1.00000E+01 3.00000E+01
 -1       546 3.00000E+01 1.00000E+01 2.50000E+01
 -1       547 3.00000E+01 1.50000E+01 3.00000E+01
 -1       548 3.00000E+01 1.00000E+01 4.00000E+01
 -1       549 3.50000E+01 1.00000E+01 4.00000E+01
 -1       550 3.00000E+01 1.00000E+01 3.50000E+01
 -1       551 3.00000E+01 1.50000E+01 4.00000E+01
 -1       552 3.00000E+01 1.00000E+01 5.00000E+01
 -1       553 3.50000E+01 1.00000E+01 5.00000E+01
 -1       554 3.00000E+01 1.00000E+01 4.50000E+01
 -1       555 3.00000E+01 1.50000E+01 5.00000E+01
 -1       556 2.00000E+01 1.00000E+01 0.00000E+00
 -1       557 2.00000E+01 1.00000E+01 1.00000E+01
 -1       558 2.50000E+01 1.00000E+01 0.00000E+00
 -1       559 2.50000E+01 1.00000E+01 1.00000E+01
 -1       560 2.00000E+01 1.50000E+01 0.00000E+00
 -1       561 2.00000E+01 1.00000E+01 5.00000E+00
 -1       562 2.00000E+01 1.50000E+01 1.00000E+01
 -1       563 2.00000E+01 1.00000E+01 2.00000E+01
 -1       564 2.50000E+01 1.00000E+01 2.00000E+01
 -1       565 2.00000E+01 1.00000E+01 1.50000E+01
 -1       566 2.00000E+01 1.50000E+01 2.00000E+01
 -1       567 2.00000E+01 1.00000E+01 3.00000E+01
 -1       568 2.50000E+01 1.00000E+01 3.00000E+01
 -1       569 2.00000E+01 1.00000E+01 2.50000E+01
 -1       570 2.00000E+01 1.50000E+01 3.00000E+01
 -1       571 2.00000E+01 1.00000E+01 4.00000E+01
 -1       572 2.50000E+01 1.00000E+01 4.00000E+01
 -1       573 2.00000E+01 1.00000E+01 3.50000E+01
 -1       574 2.00000E+01 1.50000E+01 4.00000E+01
 -1       575 2.00000E+01 1.00000E+01 5.00000E+01
 -1       576 2.50000E+01 1.00000E+01 5.00000E+01
 -1       577 2.00000E+01 1.00000E+01 4.50000E+01
 -1       578 2.00000E+01 1.50000E+01 5.00000E+01
 -1       579 1.00000E+01 1.00000E+01 0.00000E+00
 -1       580 1.00000E+01 1.00000E+01 1.00000E+01
 -1       581 1.50000E+01 1.00000E+01 0.00000E+00
 -1       582 1.50000E+01 1.00000E+01 1.00000E+01
 -1       583 1.00000E+01 1.50000E+01 0.00000E+00