    1C
    1UUSER                                                              
    1UDATE              03.march.2026                                   
    1UTIME              20:36:29                                        
    1UHOST                                                              
    1UPGM               CalculiX                                        
    1UVERSION           Version 2.23                             
    1UCOMPILETIME       Tue Feb 17 18:00:22     2026                    
    1UDIR                                                               
    1UDBN                                                               
    1UMAT    1STEEL                                                     
    2C                           190                                     1
 -1         1 0.00000E+00 0.00000E+00 0.00000E+00
 -1         2 1.00000E+01 0.00000E+00 0.00000E+00
 -1         3 2.00000E+01 0.00000E+00 0.00000E+00
 -1         4 2.50000E+01 0.00000E+00 0.00000E+00
 -1         5 2.25000E+01 0.00000E+00 0.00000E+00
 -1         6 3.00000E+01 0.00000E+00 0.00000E+00
 -1         7 2.75000E+01 0.00000E+00 0.00000E+00
 -1         8 4.00000E+01 0.00000E+00 0.00000E+00
 -1         9 5.00000E+01 0.00000E+00 0.00000E+00
 -1        10 4.00000E+01 1.00000E+01 0.00000E+00
 -1        11 5.00000E+01 1.00000E+01 0.00000E+00
 -1        12 6.00000E+01 0.00000E+00 0.00000E+00
 -1        13 7.00000E+01 0.00000E+00 0.00000E+00
 -1        14 7.00000E+01 1.00000E+01 0.00000E+00
 -1        15 6.00000E+01 1.00000E+01 0.00000E+00
 -1        16 8.00000E+01 0.00000E+00 0.00000E+00
 -1        17 9.00000E+01 0.00000E+00 0.00000E+00
 -1        18 8.00000E+01 1.00000E+01 0.00000E+00
 -1        19 8.50000E+01 0.00000E+00 0.00000E+00
 -1        20 8.50000E+01 5.00000E+00 0.00000E+00
 -1        21 8.00000E+01 5.00000E+00 0.00000E+00
 -1        22 9.00000E+01 1.00000E+01 0.00000E+00
 -1        23 9.00000E+01 5.00000E+00 0.00000E+00
 -1        24 8.50000E+01 1.00000E+01 0.00000E+00
 -1        25 1.00000E+02 0.00000E+00 0.00000E+00
 -1        26 1.10000E+02 0.00000E+00 0.00000E+00
 -1        27 1.10000E+02 1.00000E+01 0.00000E+00
 -1        28 1.00000E+02 1.00000E+01 0.00000E+00
 -1        29 1.05000E+02 0.00000E+00 0.00000E+00
 -1        30 1.10000E+02 5.00000E+00 0.00000E+00
 -1        31 1.05000E+02 1.00000E+01 0.00000E+00
 -1        32 1.00000E+02 5.00000E+00 0.00000E+00
 -1        33 1.25000E+02 0.00000E+00 0.00000E+00
 -1        34 1.30000E+02 5.00000E+00 0.00000E+00
 -1        35 1.25000E+02 1.00000E+01 0.00000E+00
 -1        36 1.30000E+02 0.00000E+00 0.00000E+00
 -1        37 1.30000E+02 1.00000E+01 0.00000E+00
 -1        38 1.20000E+02 1.00000E+01 0.00000E+00
 -1        39 1.20000E+02 5.00000E+00 0.00000E+00
 -1        40 1.20000E+02 0.00000E+00 0.00000E+00
 -1        41 1.25000E+02 0.00000E+00 1.00000E+01
 -1        42 1.30000E+02 5.00000E+00 1.00000E+01
 -1        43 1.25000E+02 1.00000E+01 1.00000E+01
 -1        44 1.30000E+02 0.00000E+00 1.00000E+01
 -1        45 1.30000E+02 1.00000E+01 1.00000E+01
 -1        46 1.20000E+02 1.00000E+01 1.00000E+01
 -1        47 1.20000E+02 5.00000E+00 1.00000E+01
 -1        48 1.20000E+02 0.00000E+00 1.00000E+01
 -1        49 1.20000E+02 0.00000E+00 5.00000E+00
 -1        50 1.30000E+02 0.00000E+00 5.00000E+00
 -1        51 1.30000E+02 1.00000E+01 5.00000E+00
 -1        52 1.20000E+02 1.00000E+01 5.00000E+00
 -1        53 1.85000E+02 0.00000E+00 0.00000E+00
 -1        54 1.90000E+02 5.00000E+00 0.00000E+00
 -1        55 1.85000E+02 1.00000E+01 0.00000E+00
 -1        56 1.87500E+02 2.50000E+00 0.00000E+00
 -1        57 1.87500E+02 7.50000E+00 0.00000E+00
 -1        58 1.85000E+02 5.00000E+00 0.00000E+00
 -1        59 1.90000E+02 0.00000E+00 0.00000E+00
 -1        60 1.87500E+02 0.00000E+00 0.00000E+00
 -1        61 1.90000E+02 2.50000E+00 0.00000E+00
 -1        62 1.90000E+02 1.00000E+01 0.00000E+00
 -1        63 1.90000E+02 7.50000E+00 0.00000E+00
 -1        64 1.87500E+02 1.00000E+01 0.00000E+00
 -1        65 1.80000E+02 1.00000E+01 0.00000E+00
 -1        66 1.80000E+02 5.00000E+00 0.00000E+00
 -1        67 1.82500E+02 1.00000E+01 0.00000E+00
 -1        68 1.80000E+02 7.50000E+00 0.00000E+00
 -1        69 1.82500E+02 7.50000E+00 0.00000E+00
 -1        70 1.80000E+02 0.00000E+00 0.00000E+00
 -1        71 1.82500E+02 0.00000E+00 0.00000E+00
 -1        72 1.82500E+02 2.50000E+00 0.00000E+00
 -1        73 1.80000E+02 2.50000E+00 0.00000E+00
 -1        74 1.85000E+02 0.00000E+00 1.00000E+01
 -1        75 1.90000E+02 5.00000E+00 1.00000E+01
 -1        76 1.85000E+02 1.00000E+01 1.00000E+01
 -1        77 1.87500E+02 2.50000E+00 1.00000E+01
 -1        78 1.87500E+02 7.50000E+00 1.00000E+01
 -1        79 1.85000E+02 5.00000E+00 1.00000E+01
 -1        80 1.90000E+02 0.00000E+00 1.00000E+01
 -1        81 1.87500E+02 0.00000E+00 1.00000E+01
 -1        82 1.90000E+02 2.50000E+00 1.00000E+01
 -1        83 1.90000E+02 1.00000E+01 1.00000E+01
 -1        84 1.90000E+02 7.50000E+00 1.00000E+01
 -1        85 1.87500E+02 1.00000E+01 1.00000E+01
 -1        86 1.80000E+02 1.00000E+01 1.00000E+01
 -1        87 1.80000E+02 5.00000E+00 1.00000E+01
 -1        88 1.82500E+02 1.00000E+01 1.00000E+01
 -1        89 1.80000E+02 7.50000E+00 1.00000E+01
 -1        90 1.82500E+02 7.50000E+00 1.00000E+01
 -1        91 1.80000E+02 0.00000E+00 1.00000E+01
 -1        92 1.82500E+02 0.00000E+00 1.00000E+01
 -1        93 1.82500E+02 2.50000E+00 1.00000E+01
 -1        94 1.80000E+02 2.50000E+00 1.00000E+01
 -1        95 1.80000E+02 0.00000E+00 5.00000E+00
 -1        96 1.90000E+02 0.00000E+00 5.00000E+00
 -1        97 1.82500E+02 0.00000E+00 7.50000E+00
 -1        98 1.87500E+02 0.00000E+00 7.50000E+00
 -1        99 1.85000E+02 0.00000E+00 5.00000E+00
 -1       100 1.90000E+02 0.00000E+00 7.50000E+00
 -1       101 1.80000E+02 0.00000E+00 7.50000E+00
 -1       102 1.80000E+02 0.00000E+00 2.50000E+00
 -1       103 1.82500E+02 0.00000E+00 2.50000E+00
 -1       104 1.87500E+02 0.00000E+00 2.50000E+00
 -1       105 1.90000E+02 0.00000E+00 2.50000E+00
 -1       106 1.90000E+02 1.00000E+01 5.00000E+00
 -1       107 1.90000E+02 2.50000E+00 7.50000E+00
 -1       108 1.90000E+02 7.50000E+00 7.50000E+00
 -1       109 1.90000E+02 5.00000E+00 5.00000E+00
 -1       110 1.90000E+02 1.00000E+01 7.50000E+00
 -1       111 1.90000E+02 2.50000E+00 2.50000E+00
 -1       112 1.90000E+02 7.50000E+00 2.50000E+00
 -1       113 1.90000E+02 1.00000E+01 2.50000E+00
 -1       114 1.80000E+02 1.00000E+01 5.00000E+00
 -1       115 1.87500E+02 1.00000E+01 7.50000E+00
 -1       116 1.82500E+02 1.00000E+01 7.50000E+00
 -1       117 1.85000E+02 1.00000E+01 5.00000E+00
 -1       118 1.80000E+02 1.00000E+01 7.50000E+00
 -1       119 1.87500E+02 1.00000E+01 2.50000E+00
 -1       120 1.82500E+02 1.00000E+01 2.50000E+00
 -1       121 1.80000E+02 1.00000E+01 2.50000E+00
 -1       122 1.80000E+02 7.50000E+00 7.50000E+00
 -1       123 1.80000E+02 2.50000E+00 7.50000E+00
 -1       124 1.80000E+02 5.00000E+00 5.00000E+00
 -1       125 1.80000E+02 7.50000E+00 2.50000E+00
 -1       126 1.80000E+02 2.50000E+00 2.50000E+00
 -1       127 1.40000E+02 0.00000E+00 0.00000E+00
 -1       128 1.50000E+02 0.00000E+00 0.00000E+00
 -1       129 1.40000E+02 1.00000E+01 0.00000E+00
 -1       130 1.50000E+02 1.00000E+01 0.00000E+00
 -1       131 2.00000E+02 0.00000E+00 0.00000E+00
 -1       132 2.10000E+02 0.00000E+00 0.00000E+00
 -1       133 2.00000E+02 1.00000E+01 0.00000E+00
 -1       134 2.05000E+02 0.00000E+00 0.00000E+00
 -1       135 2.05000E+02 5.00000E+00 0.00000E+00
 -1       136 2.00000E+02 5.00000E+00 0.00000E+00
 -1       137 2.10000E+02 1.00000E+01 0.00000E+00
 -1       138 2.10000E+02 5.00000E+00 0.00000E+00
 -1       139 2.05000E+02 1.00000E+01 0.00000E+00
 -1       140 1.70000E+02 1.00000E+01 0.00000E+00
 -1       141 1.70000E+02 0.00000E+00 0.00000E+00
 -1       142 1.70000E+02 0.00000E+00 1.00000E+01
 -1       143 1.70000E+02 1.00000E+01 1.00000E+01
 -1       144 1.60000E+02 1.00000E+01 0.00000E+00
 -1       145 1.60000E+02 0.00000E+00 0.00000E+00
 -1       146 1.60000E+02 0.00000E+00 1.00000E+01
 -1       147 1.60000E+02 1.00000E+01 1.00000E+01
 -1       148 2.30000E+02 1.00000E+01 0.00000E+00
 -1       149 2.30000E+02 0.00000E+00 0.00000E+00
 -1       150 2.30000E+02 0.00000E+00 1.00000E+01
 -1       151 2.30000E+02 1.00000E+01 1.00000E+01
 -1       152 2.20000E+02 1.00000E+01 0.00000E+00
 -1       153 2.20000E+02 0.00000E+00 0.00000E+00
 -1       154 2.20000E+02 0.00000E+00 1.00000E+01
 -1       155 2.20000E+02 1.00000E+01 1.00000E+01
 -1       156 2.30000E+02 5.00000E+00 0.00000E+00
 -1       157 2.30000E+02 0.00000E+00 5.00000E+00
 -1       158 2.30000E+02 5.00000E+00 1.00000E+01
 -1       159 2.30000E+02 1.00000E+01 5.00000E+00
 -1       160 2.25000E+02 1.00000E+01 0.00000E+00
 -1       161 2.25000E+02 0.00000E+00 0.00000E+00
 -1       162 2.25000E+02 0.00000E+00 1.00000E+01
 -1       163 2.25000E+02 1.00000E+01 1.00000E+01
 -1       164 2.20000E+02 5.00000E+00 0.00000E+00
 -1       165 2.20000E+02 0.00000E+00 5.00000E+00
 -1       166 2.20000E+02 5.00000E+00 1.00000E+01
 -1       167 2.20000E+02 1.00000E+01 5.00000E+00
 -1       186 1.82500E+02 5.00000E+00 7.50000E+00
 -1       188 1.85000E+02 2.50000E+00 7.50000E+00
 -1       193 1.85000E+02 5.00000E+00 5.00000E+00
 -1       195 1.82500E+02 5.00000E+00 2.50000E+00
 -1       219 1.87500E+02 5.00000E+00 2.50000E+00
 -1       227 1.87500E+02 2.50000E+00 5.00000E+00
 -1       242 1.40000E+02 0.00000E+00 1.00000E+01
 -1       243 1.50000E+02 0.00000E+00 1.00000E+01
 -1       244 1.40000E+02 1.00000E+01 1.00000E+01
 -1       245 1.50000E+02 1.00000E+01 1.00000E+01
 -1       253 2.00000E+02 0.00000E+00 1.00000E+01
 -1       254 2.10000E+02 0.00000E+00 1.00000E+01
 -1       255 2.00000E+02 1.00000E+01 1.00000E+01
 -1       256 2.05000E+02 0.00000E+00 1.00000E+01
 -1       257 2.05000E+02 5.00000E+00 1.00000E+01
 -1       258 2.00000E+02 5.00000E+00 1.00000E+01
 -1       259 2.10000E+02 1.00000E+01 1.00000E+01
 -1       260 2.10000E+02 5.00000E+00 1.00000E+01
 -1       261 2.05000E+02 1.00000E+01 1.00000E+01
 -1       262 2.00000E+02 0.00000E+00 5.00000E+00
 -1       263 2.10000E+02 0.00000E+00 5.00000E+00
 -1       264 2.00000E+02 1.00000E+01 5.00000E+00
 -1       268 2.10000E+02 1.00000E+01 5.00000E+00
 -3
    3C                            61                                     1
 -1         1   11    0    1
 -2         1         2
 -1         2   12    0    1
 -2         3         4         5
 -1         3   12    0    1
 -2         4         6         7
 -1         4    7    0    1
 -2         8         9        10
 -1         5    7    0    1
 -2        10         9        11
 -1         6    9    0    1
 -2        12        13        14        15
 -1         7    8    0    1
 -2        16        17        18        19        20        21
 -1         8    8    0    1
 -2        18        17        22        20        23        24
 -1         9   10    0    1
 -2        25        26        27        28        29        30        31        32
 -1        82    2    0    1
 -2       127       128       129       242       243       244
 -1        83    2    0    1
 -2       129       128       130       244       243       245
 -1        84    5    0    1
 -2       131       132       133       253       254       255       134       135       136       262
 -2       263       264       256       257       258
 -1        85    5    0    1
 -2       133       132       137       255       254       259       135       138       139       264
 -2       263       268       257       260       261
 -1        86    1    0    1
 -2       140       141       142       143       144       145       146       147
 -1        87    4    0    1
 -2       148       149       150       151       152       153       154       155       156       157
 -2       158       159       160       161       162       163       164       165       166       167
 -1        88    3    0    1
 -2        52        46        47        43
 -1        89    3    0    1
 -2        48        49        47        41
 -1        90    3    0    1
 -2        37        51        35        34
 -1        91    3    0    1
 -2        49        43        47        41
 -1        92    3    0    1
 -2        42        49        50        41
 -1        93    3    0    1
 -2        43        33        49        52
 -1        94    3    0    1
 -2        44        41        42        50
 -1        95    3    0    1
 -2        43        45        42        51
 -1        96    3    0    1
 -2        49        52        33        39
 -1        97    3    0    1
 -2        40        39        49        33
 -1        98    3    0    1
 -2        36        34        33        50
 -1        99    3    0    1
 -2        51        50        33        34
 -1       100    3    0    1
 -2        52        39        38        35
 -1       101    3    0    1
 -2        52        51        33        35
 -1       102    3    0    1
 -2        42        33        50        49
 -1       103    3    0    1
 -2        43        33        42        49
 -1       104    3    0    1
 -2        52        39        35        33
 -1       105    3    0    1
 -2        43        49        47        52
 -1       106    3    0    1
 -2        43        49        42        41
 -1       107    3    0    1
 -2        33        43        51        52
 -1       108    3    0    1
 -2        43        33        51        42
 -1       109    3    0    1
 -2        42        33        51        50
 -1       110    3    0    1
 -2        51        35        34        33
 -1       111    6    0    1
 -2       114        86        87        76       118        89       122       116        88        90
 -1       112    6    0    1
 -2        91        95        87        74       101       123        94        92        97        93
 -1       113    6    0    1
 -2        62       106        55        54       113       119        64        63       112        57
 -1       114    6    0    1
 -2        95        76        87        74       186        90       123        97        79        93
 -1       115    6    0    1
 -2        75        95        96        74       188        99       107        77        97        98
 -1       116    6    0    1
 -2        76        53        95       114       193       103       186       116       195       124
 -1       117    6    0    1
 -2        80        74        75        96        81        77        82       100        98       107
 -1       118    6    0    1
 -2        76        83        75       106        85        84        78       115       110       108
 -1       119    6    0    1
 -2        95       114        53        66       124       195       103       126       125        72
 -1       120    6    0    1
 -2        70        66        95        53        73       126       102        71        72       103
 -1       121    6    0    1
 -2        59        54        53        96        61        56        60       105       111       104
 -1       122    6    0    1
 -2       106        96        53        54       109       104       219       112       111        56
 -1       123    6    0    1
 -2       114        66        65        55       125        68       121       120        69        67
 -1       124    6    0    1
 -2       114       106        53        55       117       219       195       120       119        58
 -1       125    6    0    1
 -2        75        53        96        95       227       104       107       188       103        99
 -1       126    6    0    1
 -2        76        53        75        95       193       227        78       186       103       188
 -1       127    6    0    1
 -2       114        66        55        53       125        69       120       195        72        58
 -1       128    6    0    1
 -2        76        95        87       114       186       123        90       116       124       122
 -1       129    6    0    1
 -2        76        95        75        74       186       188        78        79        97        77
 -1       130    6    0    1
 -2        53        76       106       114       193       115       219       195       116       117
 -1       131    6    0    1
 -2        76        53       106        75       193       219       115        78       227       108
 -1       132    6    0    1
 -2        75        53       106        96       227       219       108       107       104       109
 -1       133    6    0    1
 -2       106        55        54        53       119        57       112       219        58        56
 -3
    1PSTEP                         1           1           1          
  100CL  101 5.00000E-01         190                     0    1           1
 -4  DISP        4    1
 -5  D1          1    2    1    0
 -5  D2          1    2    2    0
 -5  D3          1    2    3    0
 -5  ALL         1    2    0    0    1ALL
 -1         1 0.00000E+00-3.38813E-21 3.38813E-21
 -1         2-2.40741E-35-3.38813E-21 0.00000E+00
 -1         3 0.00000E+00 3.38813E-21-3.38813E-21
 -1         4-5.08405E-19-9.68565E-17 2.86065E-16
 -1         5-3.85262E-06-7.09272E-17 2.13286E-16
 -1         6 0.00000E+00 0.00000E+00-3.38813E-21
 -1         7 3.85262E-06-7.26280E-17 2.11054E-16
 -1         8 0.00000E+00 0.00000E+00 0.00000E+00
 -1         9 0.00000E+00 0.00000E+00 0.00000E+00
 -1        10 0.00000E+00 0.00000E+00 0.00000E+00
 -1        11 0.00000E+00 0.00000E+00 0.00000E+00
 -1        12 0.00000E+00 0.00000E+00 0.00000E+00
 -1        13 0.00000E+00 0.00000E+00 0.00000E+00
 -1        14 0.00000E+00 0.00000E+00 0.00000E+00
 -1        15 0.00000E+00 0.00000E+00 0.00000E+00
 -1        16 8.09077E-35-4.00552E-35 4.44336E-22
 -1        17-6.71532E-35 9.80027E-36 6.54662E-22
 -1        18-5.04312E-36 8.79294E-36 6.54662E-22
 -1        19 1.40948E-04-7.25836E-04 4.71086E-17
 -1        20-2.58273E-18 1.32637E-18 5.29768E-17
 -1        21-7.25836E-04 1.40948E-04 3.55076E-17
 -1        22-4.26592E-35-1.14233E-35 1.57371E-21
 -1        23 7.25836E-04-1.40948E-04 3.84892E-18
 -1        24-1.40948E-04 7.25836E-04 2.00171E-17
 -1        25 3.26813E-34-2.27633E-33 6.86186E-22
 -1        26-7.19377E-34 6.20137E-34-4.43191E-22
 -1        27-3.36087E-34 1.79451E-33 6.86186E-22
 -1        28-5.05854E-34-2.67589E-33 6.86186E-22
 -1        29 4.37844E-17-7.97548E-04-3.40805E-16
 -1        30 7.97548E-04 1.72951E-18 1.70464E-15
 -1        31 4.25515E-17 7.97548E-04-3.88524E-16
 -1        32-7.97548E-04 4.92738E-20 1.20974E-15
 -1        33-1.24239E-06-8.14315E-04 8.71814E-04
 -1        34 6.83046E-04 2.13073E-05 7.40129E-04
 -1        35 1.05379E-06 7.07770E-04 7.78116E-04
 -1        36 0.00000E+00 0.00000E+00 0.00000E+00
 -1        37 0.00000E+00 0.00000E+00 0.00000E+00
 -1        38 0.00000E+00 0.00000E+00 0.00000E+00
 -1        39-6.83923E-04 2.01643E-05 7.39103E-04
 -1        40 0.00000E+00 0.00000E+00 0.00000E+00
 -1        41-4.01115E-06-9.25690E-04 2.61216E-03
 -1        42 9.24441E-04-3.92481E-05 2.64380E-03
 -1        43 4.43846E-06 8.54857E-04 2.67739E-03
 -1        44 9.09629E-04-9.30761E-04 2.61385E-03
 -1        45 9.03264E-04 8.67029E-04 2.64927E-03
 -1        46-8.94911E-04 8.81370E-04 2.64820E-03
 -1        47-9.17287E-04-1.73370E-05 2.65030E-03
 -1        48-9.12100E-04-9.16980E-04 2.62173E-03
 -1        49-9.33355E-04-8.83200E-04 1.72320E-03
 -1        50 9.32255E-04-8.77493E-04 1.71674E-03
 -1        51 8.70987E-04 8.83249E-04 1.74957E-03
 -1        52-8.70057E-04 8.82316E-04 1.74526E-03
 -1        53-3.19896E-06-8.44710E-04 8.00666E-04
 -1        54 8.31910E-04 2.88315E-05 7.86968E-04
 -1        55 7.71767E-07 8.78066E-04 7.92104E-04
 -1        56 3.66399E-04-3.46345E-04 8.04872E-04
 -1        57 3.40076E-04 3.46673E-04 7.74989E-04
 -1        58 1.25342E-08-1.10556E-05 8.36636E-04
 -1        59 0.00000E+00 0.00000E+00 0.00000E+00
 -1        60 1.25229E-04-6.44648E-04 6.23961E-04
 -1        61 6.50578E-04-1.11525E-04 6.24393E-04
 -1        62 0.00000E+00 0.00000E+00 0.00000E+00
 -1        63 6.37498E-04 1.30515E-04 6.16868E-04
 -1        64 1.24759E-04 6.45578E-04 6.29477E-04
 -1        65 0.00000E+00 0.00000E+00 0.00000E+00
 -1        66-8.30635E-04 3.00107E-05 7.83043E-04
 -1        67-1.22841E-04 6.46928E-04 6.28945E-04
 -1        68-6.35894E-04 1.31946E-04 6.14597E-04
 -1        69-3.38181E-04 3.47571E-04 7.74163E-04
 -1        70 0.00000E+00 0.00000E+00 0.00000E+00
 -1        71-1.27373E-04-6.47327E-04 6.27705E-04
 -1        72-3.68649E-04-3.47375E-04 8.03821E-04
 -1        73-6.50406E-04-1.13891E-04 6.23294E-04
 -1        74-7.10496E-06-9.10740E-04 2.59716E-03
 -1        75 9.15544E-04 8.85745E-06 2.58746E-03
 -1        76-2.28393E-06 9.44512E-04 2.56943E-03
 -1        77 4.58116E-04-4.54624E-04 2.61011E-03
 -1        78 4.59058E-04 4.75983E-04 2.59386E-03
 -1        79 4.24185E-07 7.04545E-06 2.61727E-03
 -1        80 9.17171E-04-9.09453E-04 2.58471E-03
 -1        81 4.61373E-04-9.10784E-04 2.59668E-03
 -1        82 9.15256E-04-4.54984E-04 2.58968E-03
 -1        83 9.22220E-04 9.25947E-04 2.56468E-03
 -1        84 9.16852E-04 4.72060E-04 2.58138E-03
 -1        85 4.66767E-04 9.32315E-04 2.57023E-03
 -1        86-9.20236E-04 9.24522E-04 2.57010E-03
 -1        87-9.07858E-04 6.41648E-06 2.60052E-03
 -1        88-4.66199E-04 9.31417E-04 2.57298E-03
 -1        89-9.13045E-04 4.70717E-04 2.59055E-03
 -1        90-4.57128E-04 4.73946E-04 2.59654E-03
 -1        91-9.19868E-04-9.09826E-04 2.57451E-03
 -1        92-4.67018E-04-9.11071E-04 2.58447E-03
 -1        93-4.63447E-04-4.56155E-04 2.60217E-03
 -1        94-9.15669E-04-4.55730E-04 2.58803E-03
 -1        95-9.19334E-04-8.93128E-04 1.63024E-03
 -1        96 9.08008E-04-8.97804E-04 1.61883E-03
 -1        97-4.64796E-04-9.01280E-04 2.12809E-03
 -1        98 4.56703E-04-9.04838E-04 2.14375E-03
 -1        99-5.44140E-07-8.98442E-04 1.69706E-03
 -1       100 9.04415E-04-9.00983E-04 2.11890E-03
 -1       101-9.12364E-04-8.96315E-04 2.11485E-03
 -1       102-8.24227E-04-7.98198E-04 1.02185E-03
 -1       103-4.48045E-04-8.76014E-04 1.22637E-03
 -1       104 4.44901E-04-8.73279E-04 1.21678E-03
 -1       105 8.20972E-04-7.99029E-04 1.01725E-03
 -1       106 9.14721E-04 8.83981E-04 1.60394E-03
 -1       107 9.07325E-04-4.58244E-04 2.12894E-03
 -1       108 9.12471E-04 4.61037E-04 2.12425E-03
 -1       109 8.89278E-04 4.68700E-06 1.70006E-03
 -1       110 9.15731E-04 9.04776E-04 2.09901E-03
 -1       111 8.54192E-04-4.17585E-04 1.21399E-03
 -1       112 8.81022E-04 4.16456E-04 1.21412E-03
 -1       113 8.02494E-04 7.90284E-04 1.00876E-03
 -1       114-9.16787E-04 8.87288E-04 1.60596E-03
 -1       115 4.70002E-04 9.15064E-04 2.11517E-03
 -1       116-4.73071E-04 9.14983E-04 2.11461E-03
 -1       117-7.58902E-07 9.00952E-04 1.69601E-03
 -1       118-9.16751E-04 9.02255E-04 2.10347E-03
 -1       119 4.21052E-04 8.71974E-04 1.21960E-03
 -1       120-4.20921E-04 8.72795E-04 1.22027E-03
 -1       121-8.01958E-04 7.91975E-04 1.00837E-03
 -1       122-9.10060E-04 4.57391E-04 2.13617E-03
 -1       123-9.09134E-04-4.50255E-04 2.13341E-03
 -1       124-9.00261E-04 1.12198E-05 1.68723E-03
 -1       125-8.79731E-04 4.19304E-04 1.21116E-03
 -1       126-8.57010E-04-4.17794E-04 1.21116E-03
 -1       127 0.00000E+00 0.00000E+00 0.00000E+00
 -1       128 0.00000E+00 0.00000E+00 0.00000E+00
 -1       129 0.00000E+00 0.00000E+00 0.00000E+00
 -1       130 0.00000E+00 0.00000E+00 0.00000E+00
 -1       131 0.00000E+00 0.00000E+00 0.00000E+00
 -1       132 0.00000E+00 0.00000E+00 0.00000E+00
 -1       133 0.00000E+00 0.00000E+00 0.00000E+00
 -1       134 9.69674E-05-5.17064E-04 5.65513E-04
 -1       135-1.46706E-18 6.41261E-18 1.05011E-03
 -1       136-5.17064E-04 9.69674E-05 5.65513E-04
 -1       137 0.00000E+00 0.00000E+00 0.00000E+00
 -1       138 5.17064E-04-9.69674E-05 5.65513E-04
 -1       139-9.69674E-05 5.17064E-04 5.65513E-04
 -1       140 0.00000E+00 0.00000E+00 0.00000E+00
 -1       141 0.00000E+00 0.00000E+00 0.00000E+00
 -1       142 1.16997E-03-1.16997E-03 2.33993E-03
 -1       143 1.16997E-03 1.16997E-03 2.33993E-03
 -1       144 0.00000E+00 0.00000E+00 0.00000E+00
 -1       145 0.00000E+00 0.00000E+00 0.00000E+00
 -1       146-1.16997E-03-1.16997E-03 2.33993E-03
 -1       147-1.16997E-03 1.16997E-03 2.33993E-03
 -1       148 0.00000E+00 0.00000E+00 0.00000E+00
 -1       149 0.00000E+00 0.00000E+00 0.00000E+00
 -1       150 1.00424E-03-1.00424E-03 2.49686E-03
 -1       151 1.00424E-03 1.00424E-03 2.49686E-03
 -1       152 0.00000E+00 0.00000E+00 0.00000E+00
 -1       153 0.00000E+00 0.00000E+00 0.00000E+00
 -1       154-1.00424E-03-1.00424E-03 2.49686E-03
 -1       155-1.00424E-03 1.00424E-03 2.49686E-03
 -1       156 5.98190E-04-4.76954E-18 3.24254E-04
 -1       157 8.13624E-04-8.13624E-04 1.34276E-03
 -1       158 7.56525E-04 6.68073E-18 2.39278E-03
 -1       159 8.13624E-04 8.13624E-04 1.34276E-03
 -1       160 6.18713E-18 5.98190E-04 3.24254E-04
 -1       161 1.92989E-18-5.98190E-04 3.24254E-04
 -1       162 4.09943E-18-7.56525E-04 2.39278E-03
 -1       163 3.13932E-19 7.56525E-04 2.39278E-03
 -1       164-5.98190E-04-1.89604E-18 3.24254E-04
 -1       165-8.13624E-04-8.13624E-04 1.34276E-03
 -1       166-7.56525E-04 8.95526E-18 2.39278E-03
 -1       167-8.13624E-04 8.13624E-04 1.34276E-03
 -1       186-4.56784E-04 1.89899E-06 2.16473E-03
 -1       188-2.69963E-06-4.54902E-04 2.16935E-03
 -1       193-1.08179E-06 1.63228E-06 1.74298E-03
 -1       195-4.22655E-04 1.21532E-06 1.27839E-03
 -1       219 4.22017E-04 6.14980E-07 1.27930E-03
 -1       227 4.47165E-04-4.51456E-04 1.71889E-03
 -1       242-1.22337E-03-1.22337E-03 1.87554E-03
 -1       243 1.24887E-03-1.24887E-03 2.48712E-03
 -1       244-1.24887E-03 1.24887E-03 2.48712E-03
 -1       245 1.22337E-03 1.22337E-03 1.87554E-03
 -1       253-9.39969E-04-9.39969E-04 2.90717E-03
 -1       254 9.70968E-04-9.70968E-04 2.97619E-03
 -1       255-9.70968E-04 9.70968E-04 2.97619E-03
 -1       256-5.07371E-05-7.02671E-04 2.72564E-03
 -1       257-1.67959E-18 9.49472E-18 2.50872E-03
 -1       258-7.02671E-04-5.07371E-05 2.72564E-03
 -1       259 9.39969E-04 9.39969E-04 2.90717E-03
 -1       260 7.02671E-04 5.07371E-05 2.72564E-03
 -1       261 5.07371E-05 7.02671E-04 2.72564E-03
 -1       262-8.74020E-04-8.74020E-04 1.60135E-03
 -1       263 8.62850E-04-8.62850E-04 1.55631E-03
 -1       264-8.62850E-04 8.62850E-04 1.55631E-03
 -1       268 8.74020E-04 8.74020E-04 1.60135E-03
 -3
    1PSTEP                         2           1           1          
  100CL  101 5.00000E-01         190                     0    1           1
 -4  NDTEMP      1    1
 -5  T           1    1    0    0
 -1         1 3.50000E+01
 -1         2 3.50000E+01
 -1         3 3.50000E+01
 -1         4 3.50000E+01
 -1         5 3.50000E+01
 -1         6 3.50000E+01
 -1         7 3.50000E+01
 -1         8 3.50000E+01
 -1         9 3.50000E+01
 -1        10 3.50000E+01
 -1        11 3.50000E+01
 -1        12 3.50000E+01
 -1        13 3.50000E+01
 -1        14 3.50000E+01
 -1        15 3.50000E+01
 -1        16 3.50000E+01
 -1        17 3.50000E+01
 -1        18 3.50000E+01
 -1        19 3.50000E+01
 -1        20 3.50000E+01
 -1        21 3.50000E+01
 -1        22 3.50000E+01
 -1        23 3.50000E+01
 -1        24 3.50000E+01
 -1        25 3.50000E+01
 -1        26 3.50000E+01
 -1        27 3.50000E+01
 -1        28 3.50000E+01
 -1        29 3.50000E+01
 -1        30 3.50000E+01
 -1        31 3.50000E+01
 -1        32 3.50000E+01
 -1        33 3.50000E+01
 -1        34 3.50000E+01
 -1        35 3.50000E+01
 -1        36 3.50000E+01
 -1        37 3.50000E+01
 -1        38 3.50000E+01
 -1        39 3.50000E+01
 -1        40 3.50000E+01
 -1        41 3.50000E+01
 -1        42 3.50000E+01
 -1        43 3.50000E+01
 -1        44 3.50000E+01
 -1        45 3.50000E+01
 -1        46 3.50000E+01
 -1        47 3.50000E+01
 -1        48 3.50000E+01
 -1        49 3.50000E+01
 -1        50 3.50000E+01
 -1        51 3.50000E+01
 -1        52 3.50000E+01
 -1        53 3.50000E+01
 -1        54 3.50000E+01
 -1        55 3.50000E+01
 -1        56 3.50000E+01
 -1        57 3.50000E+01
 -1        58 3.50000E+01
 -1        59 3.50000E+01
 -1        60 3.50000E+01
 -1        61 3.50000E+01
 -1        62 3.50000E+01
 -1        63 3.50000E+01
 -1        64 3.50000E+01
 -1        65 3.50000E+01
 -1        66 3.50000E+01
 -1        67 3.50000E+01
 -1        68 3.50000E+01
 -1        69 3.50000E+01
 -1        70 3.50000E+01
 -1        71 3.50000E+01
 -1        72 3.50000E+01
 -1        73 3.50000E+01
 -1        74 3.50000E+01
 -1        75 3.50000E+01
 -1        76 3.50000E+01
 -1        77 3.50000E+01
 -1        78 3.50000E+01
 -1        79 3.50000E+01
 -1        80 3.50000E+01
 -1        81 3.50000E+01
 -1        82 3.50000E+01
 -1        83 3.50000E+01
 -1        84 3.50000E+01
 -1        85 3.50000E+01
 -1        86 3.50000E+01
 -1        87 3.50000E+01
 -1        88 3.50000E+01
 -1        89 3.50000E+01
 -1        90 3.50000E+01
 -1        91 3.50000E+01
 -1        92 3.50000E+01
 -1        93 3.50000E+01
 -1        94 3.50000E+01
 -1        95 3.50000E+01
 -1        96 3.50000E+01
 -1        97 3.50000E+01
 -1        98 3.50000E+01
 -1        99 3.50000E+01
 -1       100 3.50000E+01
 -1       101 3.50000E+01
 -1       102 3.50000E+01
 -1       103 3.50000E+01
 -1       104 3.50000E+01
 -1       105 3.50000E+01
 -1       106 3.50000E+01
 -1       107 3.50000E+01
 -1       108 3.50000E+01
 -1       109 3.50000E+01
 -1       110 3.50000E+01
 -1       111 3.50000E+01
 -1       112 3.50000E+01
 -1       113 3.50000E+01
 -1       114 3.50000E+01
 -1       115 3.50000E+01
 -1       116 3.50000E+01
 -1       117 3.50000E+01
 -1       118 3.50000E+01
 -1       119 3.50000E+01
 -1       120 3.50000E+01
 -1       121 3.50000E+01
 -1       122 3.50000E+01
 -1       123 3.50000E+01
 -1       124 3.50000E+01
 -1       125 3.50000E+01