<?xml version="1.0"?>
<VTKFile type="UnstructuredGrid" version="0.1" byte_order="LittleEndian" compressor="vtkZLibDataCompressor">
  <UnstructuredGrid>
    <Piece NumberOfPoints="10" NumberOfCells="1">
      <PointData Scalars="scalars">
        <DataArray type="Float32" Name="scalars" format="ascii">
          1 1 1 1 0 0
          0 0 0 0
        </DataArray>
      </PointData>
      <CellData>
      </CellData>
      <Points>
        <DataArray type="Float32" NumberOfComponents="3" format="ascii">
          0 0 0 1 0 0
          0.5 0.8 0 0.5 0.4 1
          0.5 0 -0.2 0.6 0.6 0
          0.3 0.4 0 0.4 0.2 0.5
          0.85 0.3 0.5 0.5 0.6 0.45
        </DataArray>
      </Points>
      <Cells>
        <DataArray type="Int32" Name="connectivity" format="ascii">
          0 1 2 3 4 5
          6 7 8 9
        </DataArray>
        <DataArray type="Int32" Name="offsets" format="ascii">
          10
        </DataArray>
        <DataArray type="UInt8" Name="types" format="ascii">
          24
        </DataArray>
      </Cells>
    </Piece>
  </UnstructuredGrid>
</VTKFile>
