/*--------------------------------*- C++ -*----------------------------------*\
| =========                 |                                                 |
| \\      /  F ield         | OpenFOAM: The Open Source CFD Toolbox           |
|  \\    /   O peration     | Version:  1.7.x                                 |
|   \\  /    A nd           | Web:      www.OpenFOAM.com                      |
|    \\/     M anipulation  |                                                 |
\*---------------------------------------------------------------------------*/
FoamFile
{
    version     2.0;
    format      ascii;
    class       volScalarField;
    location    "0.5";
    object      p;
}
// * * * * * * * * * * * * * * * * * * * * * * * * * * * * * * * * * * * * * //

dimensions      [0 2 -2 0 0 0 0];

internalField   nonuniform List<scalar> 
400
(
5.88597e-06
-0.0058199
-0.0129574
-0.0184097
-0.0204272
-0.0182336
-0.0117692
-0.00147904
0.011842
0.0271538
0.0432491
0.0588278
0.0725834
0.0833131
0.0900575
0.0922717
0.0900306
0.0842487
0.0768856
0.0710721
0.005786
-0.00021294
-0.00579878
-0.00953747
-0.0105939
-0.00842781
-0.00296514
0.00547881
0.0163075
0.0287163
0.0417544
0.0543907
0.0655912
0.0744147
0.0801251
0.0823205
0.0810821
0.0770597
0.071279
0.0653228
0.0133405
0.00503889
-0.000990222
-0.00441812
-0.00526801
-0.00325908
0.00160711
0.00903225
0.0185066
0.0293538
0.04077
0.0518743
0.0617733
0.0696412
0.0748119
0.0768829
0.0758465
0.0720907
0.0658103
0.0575404
0.0201447
0.00870114
0.00123093
-0.00266358
-0.00371726
-0.00188053
0.00273601
0.00978924
0.018785
0.0290996
0.0399965
0.0506586
0.0602376
0.0679207
0.073008
0.0750064
0.0737707
0.0694609
0.0616078
0.0501074
0.0245072
0.0097783
0.000594882
-0.00398192
-0.00529736
-0.00350256
0.00117945
0.00833924
0.0174666
0.0279537
0.0390896
0.0500745
0.0600535
0.0681697
0.0736311
0.0758025
0.0743738
0.0692946
0.0595304
0.044542
0.025183
0.00715521
-0.00379687
-0.00905213
-0.0105072
-0.00849513
-0.00335205
0.00443414
0.014318
0.0256837
0.0378185
0.0499079
0.0610527
0.0703078
0.0767393
0.0795216
0.0781437
0.0723384
0.0605441
0.0418949
0.0210986
-0.000257229
-0.0129293
-0.0187042
-0.0200247
-0.0174089
-0.0113135
-0.00231489
0.0089952
0.0219809
0.0359144
0.0499491
0.0631169
0.07435
0.0825266
0.0865742
0.0857255
0.0794519
0.0656253
0.0430766
0.0111479
-0.0136131
-0.0278699
-0.0338491
-0.0345983
-0.0308524
-0.0232078
-0.0123402
0.00110974
0.0164887
0.0330574
0.0499385
0.0660882
0.0802947
0.0912055
0.0974348
0.0978751
0.0916409
0.0759012
0.0491215
-0.00596203
-0.0342614
-0.0498649
-0.0555434
-0.0550849
-0.0495093
-0.0395883
-0.0261082
-0.00975206
0.00882799
0.028906
0.0495984
0.0698025
0.0881595
0.103052
0.112706
0.115555
0.110197
0.0928392
0.0614164
-0.0318519
-0.0638709
-0.0804118
-0.085002
-0.0824149
-0.074073
-0.0609756
-0.0440313
-0.0239463
-0.00133174
0.0231507
0.0486661
0.0741007
0.0979773
0.118401
0.133131
0.139994
0.136823
0.118446
0.0819388
-0.068662
-0.104598
-0.121339
-0.123585
-0.11751
-0.105121
-0.0877129
-0.0663201
-0.0416316
-0.0141503
0.0156109
0.0469584
0.078861
0.109799
0.137629
0.159591
0.172732
0.173783
0.155526
0.113576
-0.119397
-0.159351
-0.174909
-0.172752
-0.161142
-0.142923
-0.119753
-0.0927715
-0.0625719
-0.0294421
0.00637862
0.0444789
0.0840605
0.123708
0.161142
0.193091
0.215673
0.224082
0.208056
0.160638
-0.188623
-0.232236
-0.243933
-0.233942
-0.213689
-0.187149
-0.156367
-0.122495
-0.0858922
-0.0464664
-0.0040087
0.0415445
0.0898478
0.139835
0.189324
0.234695
0.27108
0.29167
0.281748
0.229781
-0.283968
-0.329299
-0.331826
-0.308274
-0.274703
-0.236434
-0.195758
-0.153604
-0.109834
-0.0637391
-0.0144318
0.0388695
0.0965603
0.158283
0.22238
0.285294
0.341403
0.381581
0.38492
0.33184
-0.419312
-0.459665
-0.442344
-0.395786
-0.342123
-0.287733
-0.234609
-0.182923
-0.131603
-0.0789784
-0.0232075
0.0374818
0.10456
0.178844
0.259868
0.344976
0.428622
0.499706
0.529681
0.485397
-0.620525
-0.636737
-0.57867
-0.494186
-0.411234
-0.335651
-0.267773
-0.205971
-0.147529
-0.089376
-0.028419
0.0383553
0.113814
0.200479
0.299982
0.412032
0.533036
0.651782
0.732778
0.722402
-0.935917
-0.878508
-0.741734
-0.597941
-0.474386
-0.372652
-0.288861
-0.217755
-0.153946
-0.0924565
-0.0287099
0.041703
0.123271
0.220725
0.338933
0.482162
0.652004
0.841349
1.01528
1.09751
-1.47642
-1.20662
-0.920496
-0.691381
-0.517298
-0.387537
-0.290054
-0.21333
-0.148116
-0.087208
-0.0245701
0.045465
0.128945
0.233078
0.36711
0.542685
0.7713
1.05932
1.40329
1.73015
-2.53964
-1.63054
-1.04443
-0.710951
-0.495743
-0.352086
-0.254523
-0.183576
-0.126162
-0.0735876
-0.0192615
0.0427944
0.11922
0.21879
0.35482
0.547991
0.8264
1.23659
1.91168
2.9242
-4.36666
-2.04463
-0.973535
-0.563173
-0.357839
-0.240139
-0.170112
-0.123776
-0.087474
-0.0535029
-0.016647
0.0276682
0.084615
0.161737
0.272419
0.442106
0.718226
1.22572
2.41104
4.84854
)
;

boundaryField
{
    movingWall
    {
        type            zeroGradient;
    }
    fixedWalls
    {
        type            zeroGradient;
    }
    frontAndBack
    {
        type            empty;
    }
}


// ************************************************************************* //
