/*--------------------------------*- C++ -*----------------------------------*\
| =========                 |                                                 |
| \\      /  F ield         | OpenFOAM: The Open Source CFD Toolbox           |
|  \\    /   O peration     | Version:  1.7.x                                 |
|   \\  /    A nd           | Web:      www.OpenFOAM.com                      |
|    \\/     M anipulation  |                                                 |
\*---------------------------------------------------------------------------*/
FoamFile
{
    version     2.0;
    format      ascii;
    class       surfaceScalarField;
    location    "0.5";
    object      phi;
}
// * * * * * * * * * * * * * * * * * * * * * * * * * * * * * * * * * * * * * //

dimensions      [0 3 -1 0 0 0 0];

internalField   nonuniform List<scalar> 
760
(
1.42259e-08
-1.42753e-08
-2.2215e-08
3.6441e-08
-1.14278e-07
9.20629e-08
-2.45509e-07
1.31231e-07
-3.96121e-07
1.50613e-07
-5.47397e-07
1.51276e-07
-6.83229e-07
1.35832e-07
-7.90707e-07
1.07477e-07
-8.60254e-07
6.95473e-08
-8.85688e-07
2.54346e-08
-8.64364e-07
-2.13232e-08
-7.97428e-07
-6.69355e-08
-6.90119e-07
-1.0731e-07
-5.51999e-07
-1.3812e-07
-3.96962e-07
-1.55038e-07
-2.4276e-07
-1.54202e-07
-1.09738e-07
-1.33022e-07
-1.84168e-08
-9.13206e-08
1.56903e-08
-3.41067e-08
1.56906e-08
-3.4221e-08
1.99457e-08
-1.8039e-07
1.82609e-07
-4.34021e-07
3.45694e-07
-7.64488e-07
4.61698e-07
-1.13229e-06
5.18416e-07
-1.49735e-06
5.16333e-07
-1.82346e-06
4.61947e-07
-2.08068e-06
3.64692e-07
-2.24643e-06
2.35296e-07
-2.30619e-06
8.52012e-08
-2.25405e-06
-7.34684e-08
-2.09318e-06
-2.278e-07
-1.83638e-06
-3.64117e-07
-1.50613e-06
-4.68363e-07
-1.13415e-06
-5.27022e-07
-7.59564e-07
-5.28786e-07
-4.25424e-07
-4.67163e-07
-1.72701e-07
-3.44043e-07
-3.08039e-08
-1.76004e-07
-1.51128e-08
-9.22358e-08
1.12182e-07
-3.57023e-07
4.47396e-07
-7.64611e-07
7.53282e-07
-1.26857e-06
9.65659e-07
-1.81482e-06
1.06466e-06
-2.3492e-06
1.05071e-06
-2.82262e-06
9.35365e-07
-3.19415e-06
7.36222e-07
-3.43283e-06
4.73976e-07
-3.51873e-06
1.71107e-07
-3.44378e-06
-1.48416e-07
-3.21245e-06
-4.59134e-07
-2.84227e-06
-7.34294e-07
-2.36394e-06
-9.46696e-07
-1.82042e-06
-1.07054e-06
-1.26456e-06
-1.08465e-06
-7.54562e-07
-9.77157e-07
-3.46989e-07
-7.51617e-07
-8.73409e-08
-4.35652e-07
-1.02453e-07
-1.4522e-07
2.57402e-07
-5.25494e-07
8.2767e-07
-1.0817e-06
1.30948e-06
-1.74761e-06
1.63157e-06
-2.45447e-06
1.77152e-06
-3.13655e-06
1.7328e-06
-3.7355e-06
1.53431e-06
-4.20314e-06
1.20386e-06
-4.50316e-06
7.74002e-07
-4.61218e-06
2.80118e-07
-4.5205e-06
-2.40095e-07
-4.23296e-06
-7.46676e-07
-3.76956e-06
-1.19769e-06
-3.1658e-06
-1.55046e-06
-2.472e-06
-1.76434e-06
-1.75115e-06
-1.80549e-06
-1.07456e-06
-1.65375e-06
-5.15163e-07
-1.31101e-06
-1.39322e-07
-8.11493e-07
-2.41775e-07
-1.9362e-07
4.51023e-07
-6.85035e-07
1.31909e-06
-1.38569e-06
2.01014e-06
-2.20735e-06
2.45323e-06
-3.06561e-06
2.62979e-06
-3.88396e-06
2.55114e-06
-4.59672e-06
2.24707e-06
-5.15082e-06
1.75797e-06
-5.5067e-06
1.12988e-06
-5.63877e-06
4.12196e-07
-5.536e-06
-3.42872e-07
-5.20259e-06
-1.08008e-06
-4.65907e-06
-1.74121e-06
-3.94312e-06
-2.26642e-06
-3.10983e-06
-2.59763e-06
-2.23059e-06
-2.68473e-06
-1.38969e-06
-2.49464e-06
-6.78525e-07
-2.02218e-06
-1.87775e-07
-1.30224e-06
-4.29551e-07
-2.39951e-07
6.90973e-07
-8.40383e-07
1.91952e-06
-1.68335e-06
2.85311e-06
-2.65716e-06
3.42704e-06
-3.66098e-06
3.6336e-06
-4.60794e-06
3.49811e-06
-5.42656e-06
3.06568e-06
-6.0608e-06
2.39221e-06
-6.4696e-06
1.53868e-06
-6.6263e-06
5.68896e-07
-6.51856e-06
-4.50612e-07
-6.14902e-06
-1.44962e-06
-5.53673e-06
-2.3535e-06
-4.71908e-06
-3.08407e-06
-3.75358e-06
-3.56313e-06
-2.71857e-06
-3.71975e-06
-1.71159e-06
-3.50161e-06
-8.44689e-07
-2.88908e-06
-2.36187e-07
-1.91074e-06
-6.65738e-07
-2.86755e-07
9.77728e-07
-9.97118e-07
2.62988e-06
-1.98214e-06
3.83814e-06
-3.10504e-06
4.54993e-06
-4.24809e-06
4.77665e-06
-5.31498e-06
4.56501e-06
-6.23031e-06
3.98101e-06
-6.93738e-06
3.09928e-06
-7.39571e-06
1.99701e-06
-7.57885e-06
7.52034e-07
-7.47338e-06
-5.5608e-07
-7.07932e-06
-1.84368e-06
-6.41207e-06
-3.02075e-06
-5.50574e-06
-3.9904e-06
-4.41718e-06
-4.65169e-06
-3.22946e-06
-4.90747e-06
-2.05301e-06
-4.67807e-06
-1.02257e-06
-3.91953e-06
-2.88289e-07
-2.64502e-06
-9.54027e-07
-3.36339e-07
1.31407e-06
-1.1604e-06
3.45394e-06
-2.28807e-06
4.96581e-06
-3.55507e-06
5.81694e-06
-4.82673e-06
6.0483e-06
-5.9992e-06
5.73748e-06
-6.99619e-06
4.978e-06
-7.76369e-06
3.86679e-06
-8.26467e-06
2.49798e-06
-8.4748e-06
9.62165e-07
-8.38014e-06
-6.50736e-07
-7.97706e-06
-2.24676e-06
-7.27473e-06
-3.72308e-06
-6.30008e-06
-4.96504e-06
-5.10478e-06
-5.84699e-06
-3.7726e-06
-6.23965e-06
-2.42493e-06
-6.02574e-06
-1.22077e-06
-5.12369e-06
-3.47714e-07
-3.51808e-06
-1.30174e-06
-3.90962e-07
1.70503e-06
-1.3349e-06
4.39788e-06
-2.60501e-06
6.23591e-06
-4.006e-06
7.21793e-06
-5.38688e-06
7.42919e-06
-6.63984e-06
6.99043e-06
-7.69254e-06
6.0307e-06
-8.49858e-06
4.67283e-06
-9.02853e-06
3.02794e-06
-9.26304e-06
1.19667e-06
-9.18877e-06
-7.25011e-07
-8.7976e-06
-2.63793e-06
-8.08947e-06
-4.43121e-06
-7.07911e-06
-5.9754e-06
-5.8064e-06
-7.1197e-06
-4.3491e-06
-7.69694e-06
-2.83485e-06
-7.53999e-06
-1.44711e-06
-6.51143e-06
-4.18104e-07
-4.54708e-06
-1.71984e-06
-4.53455e-07
2.15848e-06
-1.52569e-06
5.47011e-06
-2.93489e-06
7.64512e-06
-4.45014e-06
8.73317e-06
-5.90636e-06
8.88541e-06
-7.19786e-06
8.28193e-06
-8.26371e-06
7.09655e-06
-9.07213e-06
5.48125e-06
-9.60694e-06
3.56275e-06
-9.85766e-06
1.4474e-06
-9.81349e-06
-7.69182e-07
-9.46145e-06
-2.98998e-06
-8.78917e-06
-5.10349e-06
-7.79306e-06
-6.97152e-06
-6.49225e-06
-8.42051e-06
-4.948e-06
-9.24119e-06
-3.28513e-06
-9.20286e-06
-1.70869e-06
-8.08787e-06
-5.0359e-07
-5.75218e-06
-2.22343e-06
-5.28332e-07
2.68682e-06
-1.73965e-06
6.68143e-06
-3.27796e-06
9.18343e-06
-4.8716e-06
1.03268e-05
-6.34698e-06
1.03608e-05
-7.61079e-06
9.54574e-06
-8.62432e-06
8.11008e-06
-9.37965e-06
6.23658e-06
-9.88095e-06
4.06405e-06
-1.01315e-05
1.69794e-06
-1.01258e-05
-7.74928e-07
-9.84631e-06
-3.26942e-06
-9.26597e-06
-5.68383e-06
-8.35632e-06
-7.88117e-06
-7.10469e-06
-9.67214e-06
-5.54069e-06
-1.08052e-05
-3.7707e-06
-1.09728e-05
-2.01217e-06
-9.84641e-06
-6.09688e-07
-7.15466e-06
-2.83312e-06
-6.23659e-07
3.31048e-06
-1.98736e-06
8.04513e-06
-3.63187e-06
1.08279e-05
-5.24187e-06
1.19368e-05
-6.64749e-06
1.17664e-05
-7.78438e-06
1.06826e-05
-8.65091e-06
8.97661e-06
-9.27419e-06
6.85986e-06
-9.68642e-06
4.47628e-06
-9.90971e-06
1.92123e-06
-9.94713e-06
-7.37504e-07
-9.77849e-06
-3.43806e-06
-9.36081e-06
-6.10151e-06
-8.63555e-06
-8.60642e-06
-7.54633e-06
-1.07614e-05
-6.07155e-06
-1.228e-05
-4.27425e-06
-1.27701e-05
-2.36364e-06
-1.1757e-05
-7.44774e-07
-8.77352e-06
-3.5779e-06
-7.54066e-07
4.06454e-06
-2.28431e-06
9.57538e-06
-3.98695e-06
1.25306e-05
-5.509e-06
1.34589e-05
-6.70949e-06
1.29669e-05
-7.57842e-06
1.15516e-05
-8.1699e-06
9.56809e-06
-8.55746e-06
7.24742e-06
-8.80756e-06
4.72638e-06
-8.96488e-06
2.07855e-06
-9.04421e-06
-6.58177e-07
-9.0256e-06
-3.45666e-06
-8.85247e-06
-6.27464e-06
-8.43472e-06
-9.02417e-06
-7.66283e-06
-1.15332e-05
-6.44195e-06
-1.35009e-05
-4.75622e-06
-1.44559e-05
-2.76673e-06
-1.37465e-05
-9.2243e-07
-1.06178e-05
-4.50033e-06
-9.45193e-07
5.00973e-06
-2.64845e-06
1.12786e-05
-4.31091e-06
1.4193e-05
-5.57318e-06
1.47211e-05
-6.37053e-06
1.37643e-05
-6.78308e-06
1.19641e-05
-6.94027e-06
9.72527e-06
-6.96947e-06
7.27663e-06
-6.9725e-06
4.72941e-06
-7.01622e-06
2.12227e-06
-7.12833e-06
-5.46067e-07
-7.29351e-06
-3.29148e-06
-7.44842e-06
-6.11973e-06
-7.4777e-06
-8.99488e-06
-7.2178e-06
-1.17932e-05
-6.48265e-06
-1.4236e-05
-5.13338e-06
-1.58052e-05
-3.21495e-06
-1.56649e-05
-1.16438e-06
-1.26684e-05
-5.6647e-06
-1.2373e-06
6.24703e-06
-3.08325e-06
1.31246e-05
-4.50762e-06
1.56174e-05
-5.23435e-06
1.54479e-05
-5.35503e-06
1.38849e-05
-5.0816e-06
1.16907e-05
-4.63062e-06
9.2743e-06
-4.17895e-06
6.82496e-06
-3.85403e-06
4.40449e-06
-3.73669e-06
2.00493e-06
-3.8648e-06
-4.17952e-07
-4.23234e-06
-2.92395e-06
-4.78182e-06
-5.57026e-06
-5.39085e-06
-8.38585e-06
-5.85832e-06
-1.13257e-05
-5.90646e-06
-1.41879e-05
-5.23275e-06
-1.64789e-05
-3.66623e-06
-1.72314e-05
-1.50007e-06
-1.48346e-05
-7.16477e-06
-1.67379e-06
7.92083e-06
-3.51333e-06
1.49641e-05
-4.31522e-06
1.64193e-05
-4.08874e-06
1.52214e-05
-3.19287e-06
1.29891e-05
-1.99851e-06
1.04963e-05
-7.9487e-07
8.07066e-06
2.19643e-07
5.81045e-06
9.18559e-07
3.70557e-06
1.22594e-06
1.69755e-06
1.10239e-06
-2.94402e-07
5.41364e-07
-2.36292e-06
-4.22661e-07
-4.60623e-06
-1.69234e-06
-7.11617e-06
-3.07223e-06
-9.94579e-06
-4.2307e-06
-1.30294e-05
-4.69557e-06
-1.6014e-05
-3.96714e-06
-1.79599e-05
-1.94491e-06
-1.68568e-05
-9.10969e-06
-2.23068e-06
1.01515e-05
-3.59026e-06
1.63237e-05
-3.07771e-06
1.59067e-05
-1.34377e-06
1.34874e-05
8.9719e-07
1.07481e-05
3.15517e-06
8.23835e-06
5.13836e-06
6.08747e-06
6.68897e-06
4.25984e-06
7.72613e-06
2.66841e-06
8.20685e-06
1.21682e-06
8.10418e-06
-1.91731e-07
7.39931e-06
-1.65805e-06
6.0871e-06
-3.29403e-06
4.19939e-06
-5.22846e-06
1.85431e-06
-7.60071e-06
-6.61601e-07
-1.05135e-05
-2.79211e-06
-1.38835e-05
-3.66206e-06
-1.70899e-05
-2.41153e-06
-1.81073e-05
-1.15212e-05
-2.57381e-06
1.27253e-05
-2.18344e-06
1.59333e-05
7.18113e-07
1.30052e-05
4.46964e-06
9.73591e-06
8.1334e-06
7.08434e-06
1.13017e-05
5.07003e-06
1.38293e-05
3.55992e-06
1.56883e-05
2.40081e-06
1.68919e-05
1.46482e-06
1.74551e-05
6.53608e-07
1.73766e-05
-1.13207e-07
1.66307e-05
-9.1217e-07
1.51674e-05
-1.83068e-06
1.29237e-05
-2.98476e-06
9.86188e-06
-4.53891e-06
6.06205e-06
-6.71366e-06
1.91239e-06
-9.73382e-06
-1.5596e-06
-1.36179e-05
-2.45833e-06
-1.72086e-05
-1.39795e-05
-7.85013e-07
1.35103e-05
4.0808e-06
1.10675e-05
1.02976e-05
6.78843e-06
1.57937e-05
4.2398e-06
2.01581e-05
2.71992e-06
2.34582e-05
1.76996e-06
2.58609e-05
1.15715e-06
2.75217e-05
7.40061e-07
2.85542e-05
4.32298e-07
2.90266e-05
1.81222e-07
2.89624e-05
-4.89839e-08
2.83389e-05
-2.88704e-07
2.7082e-05
-5.73748e-07
2.50552e-05
-9.57965e-07
2.20518e-05
-1.53553e-06
1.78156e-05
-2.47742e-06
1.21724e-05
-4.09069e-06
5.47774e-06
-6.92325e-06
-1.29166e-07
-1.16017e-05
-1.41087e-05
1.35103e-05
2.45778e-05
3.13663e-05
3.56061e-05
3.8326e-05
4.0096e-05
4.12531e-05
4.19932e-05
4.24255e-05
4.26067e-05
4.25577e-05
4.2269e-05
4.16953e-05
4.07373e-05
3.92018e-05
3.67243e-05
3.26336e-05
2.57104e-05
1.41087e-05
)
;

boundaryField
{
    movingWall
    {
        type            calculated;
        value           uniform 0;
    }
    fixedWalls
    {
        type            calculated;
        value           uniform 0;
    }
    frontAndBack
    {
        type            empty;
    }
}


// ************************************************************************* //
