/*--------------------------------*- C++ -*----------------------------------*\
| =========                 |                                                 |
| \\      /  F ield         | OpenFOAM: The Open Source CFD Toolbox           |
|  \\    /   O peration     | Version:  1.7.x                                 |
|   \\  /    A nd           | Web:      www.OpenFOAM.com                      |
|    \\/     M anipulation  |                                                 |
\*---------------------------------------------------------------------------*/
FoamFile
{
    version     2.0;
    format      ascii;
    class       volScalarField;
    location    "2.5";
    object      p;
}
// * * * * * * * * * * * * * * * * * * * * * * * * * * * * * * * * * * * * * //

dimensions      [0 2 -2 0 0 0 0];

internalField   nonuniform List<scalar> 
400
(
2.44788e-06
-0.00582582
-0.012964
-0.0184165
-0.0204342
-0.0182406
-0.0117761
-0.00148585
0.0118353
0.0271473
0.0432426
0.0588214
0.0725771
0.0833069
0.0900513
0.0922655
0.0900244
0.0842424
0.0768791
0.0710655
0.00578024
-0.000219148
-0.0058052
-0.00954403
-0.0106007
-0.0084346
-0.00297195
0.00547207
0.0163008
0.0287098
0.041748
0.0543843
0.0655848
0.0744084
0.0801187
0.0823142
0.0810757
0.0770532
0.0712725
0.0653162
0.0133343
0.00503261
-0.000996592
-0.00442458
-0.00527456
-0.00326572
0.0016004
0.00902554
0.0185
0.0293473
0.0407635
0.0518679
0.0617669
0.0696348
0.0748054
0.0768764
0.0758399
0.0720842
0.0658037
0.0575337
0.0201386
0.00869484
0.00122454
-0.00267001
-0.00372373
-0.00188705
0.0027294
0.00978257
0.0187783
0.029093
0.03999
0.0506521
0.0602312
0.0679143
0.0730015
0.0749998
0.073764
0.0694543
0.0616011
0.0501006
0.0245011
0.009772
0.000588454
-0.00398839
-0.00530383
-0.00350904
0.00117293
0.00833264
0.01746
0.027947
0.0390829
0.0500679
0.060047
0.0681633
0.0736246
0.075796
0.0743671
0.0692879
0.0595236
0.044535
0.025177
0.00714892
-0.00380332
-0.00905866
-0.0105137
-0.00850164
-0.00335855
0.00442759
0.0143114
0.025677
0.0378117
0.0499013
0.0610461
0.0703012
0.0767328
0.079515
0.0781371
0.0723316
0.0605372
0.0418879
0.0210924
-0.000263518
-0.0129358
-0.0187107
-0.0200314
-0.0174156
-0.0113201
-0.00232145
0.0089886
0.0219743
0.0359076
0.0499423
0.0631101
0.0743433
0.08252
0.0865676
0.0857188
0.0794452
0.0656184
0.0430696
0.0111416
-0.0136195
-0.0278764
-0.0338556
-0.034605
-0.0308591
-0.0232145
-0.0123469
0.00110309
0.0164821
0.0330507
0.0499317
0.0660814
0.0802879
0.0911988
0.0974281
0.0978684
0.0916342
0.0758944
0.0491145
-0.00596855
-0.0342679
-0.0498714
-0.05555
-0.0550916
-0.0495161
-0.0395951
-0.026115
-0.00975883
0.00882125
0.0288992
0.0495917
0.0697956
0.0881526
0.103046
0.112699
0.115549
0.11019
0.0928324
0.0614095
-0.0318587
-0.0638776
-0.0804184
-0.0850086
-0.0824215
-0.0740798
-0.0609825
-0.0440383
-0.0239532
-0.00133861
0.0231439
0.0486593
0.0740938
0.0979705
0.118394
0.133124
0.139987
0.136816
0.118439
0.081932
-0.0686689
-0.104605
-0.121346
-0.123592
-0.117517
-0.105128
-0.0877198
-0.0663271
-0.0416387
-0.0141573
0.0156039
0.0469515
0.0788541
0.109792
0.137622
0.159584
0.172725
0.173776
0.155519
0.113569
-0.119404
-0.159359
-0.174916
-0.172758
-0.161149
-0.14293
-0.11976
-0.0927785
-0.0625789
-0.0294492
0.00637155
0.0444719
0.0840536
0.123702
0.161135
0.193084
0.215667
0.224075
0.208049
0.160631
-0.18863
-0.232243
-0.24394
-0.233949
-0.213696
-0.187156
-0.156374
-0.122502
-0.0858992
-0.0464735
-0.0040158
0.0415375
0.0898408
0.139828
0.189318
0.234688
0.271073
0.291663
0.281741
0.229775
-0.283976
-0.329306
-0.331833
-0.308281
-0.27471
-0.236441
-0.195765
-0.153611
-0.109841
-0.0637461
-0.0144388
0.0388624
0.0965533
0.158276
0.222373
0.285287
0.341396
0.381574
0.384913
0.331833
-0.419319
-0.459672
-0.442351
-0.395793
-0.342129
-0.28774
-0.234616
-0.18293
-0.13161
-0.0789853
-0.0232144
0.0374748
0.104553
0.178837
0.259861
0.34497
0.428616
0.4997
0.529675
0.485391
-0.620532
-0.636744
-0.578677
-0.494193
-0.41124
-0.335658
-0.26778
-0.205977
-0.147536
-0.0893828
-0.0284259
0.0383484
0.113807
0.200472
0.299975
0.412025
0.533029
0.651775
0.732772
0.722396
-0.935924
-0.878515
-0.741741
-0.597948
-0.474392
-0.372659
-0.288868
-0.217762
-0.153953
-0.0924634
-0.0287168
0.0416962
0.123264
0.220719
0.338926
0.482155
0.651997
0.841342
1.01527
1.0975
-1.47642
-1.20663
-0.920502
-0.691387
-0.517304
-0.387543
-0.29006
-0.213336
-0.148123
-0.0872148
-0.024577
0.0454581
0.128938
0.233072
0.367104
0.542679
0.771294
1.05932
1.40329
1.73014
-2.53965
-1.63055
-1.04444
-0.710958
-0.495749
-0.352092
-0.25453
-0.183582
-0.126168
-0.0735944
-0.0192684
0.0427875
0.119213
0.218783
0.354813
0.547984
0.826393
1.23658
1.91168
2.92419
-4.36666
-2.04463
-0.973541
-0.56318
-0.357845
-0.240146
-0.170118
-0.123782
-0.0874804
-0.0535095
-0.0166538
0.0276612
0.084608
0.16173
0.272412
0.4421
0.718219
1.22571
2.41104
4.84853
)
;

boundaryField
{
    movingWall
    {
        type            zeroGradient;
    }
    fixedWalls
    {
        type            zeroGradient;
    }
    frontAndBack
    {
        type            empty;
    }
}


// ************************************************************************* //
